V -t * -v 1.0a5 -a 0
A -t * -n 1 -p 0 -o 0x7fffffff -c 30 -a 1
A -t * -h 1 -m 1073741823 -s 0
c -t * -i 1 -n Blue
c -t * -i 2 -n Red
n -t * -a 0 -s 0 -S UP -v circle -c black -i black
n -t * -a 1 -s 1 -S UP -v circle -c black -i black
n -t * -a 2 -s 2 -S UP -v circle -c black -i black
l -t * -s 0 -d 1 -S UP -r 10000000 -D 0.01 -c black -o right-up
l -t * -s 1 -d 2 -S UP -r 2000000 -D 0.01 -c black -o right-down
+ -t 0.5 -s 0 -d 1 -p tcp -e 40 -c 1 -i 0 -a 1 -x {0.0 1.0 0 ------- null}
- -t 0.5 -s 0 -d 1 -p tcp -e 40 -c 1 -i 0 -a 1 -x {0.0 1.0 0 ------- null}
h -t 0.5 -s 0 -d 1 -p tcp -e 40 -c 1 -i 0 -a 1 -x {0.0 1.0 -1 ------- null}
r -t 0.510032 -s 0 -d 1 -p tcp -e 40 -c 1 -i 0 -a 1 -x {0.0 1.0 0 ------- null}
+ -t 0.510032 -s 1 -d 0 -p ack -e 40 -c 1 -i 1 -a 1 -x {1.0 0.0 0 ------- null}
- -t 0.510032 -s 1 -d 0 -p ack -e 40 -c 1 -i 1 -a 1 -x {1.0 0.0 0 ------- null}
h -t 0.510032 -s 1 -d 0 -p ack -e 40 -c 1 -i 1 -a 1 -x {1.0 0.0 -1 ------- null}
r -t 0.520064 -s 1 -d 0 -p ack -e 40 -c 1 -i 1 -a 1 -x {1.0 0.0 0 ------- null}
+ -t 0.520064 -s 0 -d 1 -p tcp -e 1240 -c 1 -i 2 -a 1 -x {0.0 1.0 1 ------- null}
- -t 0.520064 -s 0 -d 1 -p tcp -e 1240 -c 1 -i 2 -a 1 -x {0.0 1.0 1 ------- null}
h -t 0.520064 -s 0 -d 1 -p tcp -e 1240 -c 1 -i 2 -a 1 -x {0.0 1.0 -1 ------- null}
+ -t 0.520064 -s 0 -d 1 -p tcp -e 1240 -c 1 -i 3 -a 1 -x {0.0 1.0 2 ------- null}
- -t 0.521056 -s 0 -d 1 -p tcp -e 1240 -c 1 -i 3 -a 1 -x {0.0 1.0 2 ------- null}
h -t 0.521056 -s 0 -d 1 -p tcp -e 1240 -c 1 -i 3 -a 1 -x {0.0 1.0 -1 ------- null}
r -t 0.531056 -s 0 -d 1 -p tcp -e 1240 -c 1 -i 2 -a 1 -x {0.0 1.0 1 ------- null}
+ -t 0.531056 -s 1 -d 0 -p ack -e 40 -c 1 -i 4 -a 1 -x {1.0 0.0 1 ------- null}
- -t 0.531056 -s 1 -d 0 -p ack -e 40 -c 1 -i 4 -a 1 -x {1.0 0.0 1 ------- null}
h -t 0.531056 -s 1 -d 0 -p ack -e 40 -c 1 -i 4 -a 1 -x {1.0 0.0 -1 ------- null}
r -t 0.532048 -s 0 -d 1 -p tcp -e 1240 -c 1 -i 3 -a 1 -x {0.0 1.0 2 ------- null}
+ -t 0.532048 -s 1 -d 0 -p ack -e 40 -c 1 -i 5 -a 1 -x {1.0 0.0 2 ------- null}
- -t 0.532048 -s 1 -d 0 -p ack -e 40 -c 1 -i 5 -a 1 -x {1.0 0.0 2 ------- null}
h -t 0.532048 -s 1 -d 0 -p ack -e 40 -c 1 -i 5 -a 1 -x {1.0 0.0 -1 ------- null}
r -t 0.541088 -s 1 -d 0 -p ack -e 40 -c 1 -i 4 -a 1 -x {1.0 0.0 1 ------- null}
+ -t 0.541088 -s 0 -d 1 -p tcp -e 1240 -c 1 -i 6 -a 1 -x {0.0 1.0 3 ------- null}
- -t 0.541088 -s 0 -d 1 -p tcp -e 1240 -c 1 -i 6 -a 1 -x {0.0 1.0 3 ------- null}
h -t 0.541088 -s 0 -d 1 -p tcp -e 1240 -c 1 -i 6 -a 1 -x {0.0 1.0 -1 ------- null}
+ -t 0.541088 -s 0 -d 1 -p tcp -e 1240 -c 1 -i 7 -a 1 -x {0.0 1.0 4 ------- null}
r -t 0.54208 -s 1 -d 0 -p ack -e 40 -c 1 -i 5 -a 1 -x {1.0 0.0 2 ------- null}
+ -t 0.54208 -s 0 -d 1 -p tcp -e 1240 -c 1 -i 8 -a 1 -x {0.0 1.0 5 ------- null}
+ -t 0.54208 -s 0 -d 1 -p tcp -e 1240 -c 1 -i 9 -a 1 -x {0.0 1.0 6 ------- null}
- -t 0.54208 -s 0 -d 1 -p tcp -e 1240 -c 1 -i 7 -a 1 -x {0.0 1.0 4 ------- null}
h -t 0.54208 -s 0 -d 1 -p tcp -e 1240 -c 1 -i 7 -a 1 -x {0.0 1.0 -1 ------- null}
- -t 0.543072 -s 0 -d 1 -p tcp -e 1240 -c 1 -i 8 -a 1 -x {0.0 1.0 5 ------- null}
h -t 0.543072 -s 0 -d 1 -p tcp -e 1240 -c 1 -i 8 -a 1 -x {0.0 1.0 -1 ------- null}
- -t 0.544064 -s 0 -d 1 -p tcp -e 1240 -c 1 -i 9 -a 1 -x {0.0 1.0 6 ------- null}
h -t 0.544064 -s 0 -d 1 -p tcp -e 1240 -c 1 -i 9 -a 1 -x {0.0 1.0 -1 ------- null}
r -t 0.55208 -s 0 -d 1 -p tcp -e 1240 -c 1 -i 6 -a 1 -x {0.0 1.0 3 ------- null}
+ -t 0.55208 -s 1 -d 0 -p ack -e 40 -c 1 -i 10 -a 1 -x {1.0 0.0 3 ------- null}
- -t 0.55208 -s 1 -d 0 -p ack -e 40 -c 1 -i 10 -a 1 -x {1.0 0.0 3 ------- null}
h -t 0.55208 -s 1 -d 0 -p ack -e 40 -c 1 -i 10 -a 1 -x {1.0 0.0 -1 ------- null}
r -t 0.553072 -s 0 -d 1 -p tcp -e 1240 -c 1 -i 7 -a 1 -x {0.0 1.0 4 ------- null}
+ -t 0.553072 -s 1 -d 0 -p ack -e 40 -c 1 -i 11 -a 1 -x {1.0 0.0 4 ------- null}
- -t 0.553072 -s 1 -d 0 -p ack -e 40 -c 1 -i 11 -a 1 -x {1.0 0.0 4 ------- null}
h -t 0.553072 -s 1 -d 0 -p ack -e 40 -c 1 -i 11 -a 1 -x {1.0 0.0 -1 ------- null}
r -t 0.554064 -s 0 -d 1 -p tcp -e 1240 -c 1 -i 8 -a 1 -x {0.0 1.0 5 ------- null}
+ -t 0.554064 -s 1 -d 0 -p ack -e 40 -c 1 -i 12 -a 1 -x {1.0 0.0 5 ------- null}
- -t 0.554064 -s 1 -d 0 -p ack -e 40 -c 1 -i 12 -a 1 -x {1.0 0.0 5 ------- null}
h -t 0.554064 -s 1 -d 0 -p ack -e 40 -c 1 -i 12 -a 1 -x {1.0 0.0 -1 ------- null}
r -t 0.555056 -s 0 -d 1 -p tcp -e 1240 -c 1 -i 9 -a 1 -x {0.0 1.0 6 ------- null}
+ -t 0.555056 -s 1 -d 0 -p ack -e 40 -c 1 -i 13 -a 1 -x {1.0 0.0 6 ------- null}
- -t 0.555056 -s 1 -d 0 -p ack -e 40 -c 1 -i 13 -a 1 -x {1.0 0.0 6 ------- null}
h -t 0.555056 -s 1 -d 0 -p ack -e 40 -c 1 -i 13 -a 1 -x {1.0 0.0 -1 ------- null}
r -t 0.562112 -s 1 -d 0 -p ack -e 40 -c 1 -i 10 -a 1 -x {1.0 0.0 3 ------- null}
+ -t 0.562112 -s 0 -d 1 -p tcp -e 1240 -c 1 -i 14 -a 1 -x {0.0 1.0 7 ------- null}
- -t 0.562112 -s 0 -d 1 -p tcp -e 1240 -c 1 -i 14 -a 1 -x {0.0 1.0 7 ------- null}
h -t 0.562112 -s 0 -d 1 -p tcp -e 1240 -c 1 -i 14 -a 1 -x {0.0 1.0 -1 ------- null}
+ -t 0.562112 -s 0 -d 1 -p tcp -e 1240 -c 1 -i 15 -a 1 -x {0.0 1.0 8 ------- null}
r -t 0.563104 -s 1 -d 0 -p ack -e 40 -c 1 -i 11 -a 1 -x {1.0 0.0 4 ------- null}
+ -t 0.563104 -s 0 -d 1 -p tcp -e 1240 -c 1 -i 16 -a 1 -x {0.0 1.0 9 ------- null}
+ -t 0.563104 -s 0 -d 1 -p tcp -e 1240 -c 1 -i 17 -a 1 -x {0.0 1.0 10 ------- null}
- -t 0.563104 -s 0 -d 1 -p tcp -e 1240 -c 1 -i 15 -a 1 -x {0.0 1.0 8 ------- null}
h -t 0.563104 -s 0 -d 1 -p tcp -e 1240 -c 1 -i 15 -a 1 -x {0.0 1.0 -1 ------- null}
r -t 0.564096 -s 1 -d 0 -p ack -e 40 -c 1 -i 12 -a 1 -x {1.0 0.0 5 ------- null}
+ -t 0.564096 -s 0 -d 1 -p tcp -e 1240 -c 1 -i 18 -a 1 -x {0.0 1.0 11 ------- null}
+ -t 0.564096 -s 0 -d 1 -p tcp -e 1240 -c 1 -i 19 -a 1 -x {0.0 1.0 12 ------- null}
- -t 0.564096 -s 0 -d 1 -p tcp -e 1240 -c 1 -i 16 -a 1 -x {0.0 1.0 9 ------- null}
h -t 0.564096 -s 0 -d 1 -p tcp -e 1240 -c 1 -i 16 -a 1 -x {0.0 1.0 -1 ------- null}
r -t 0.565088 -s 1 -d 0 -p ack -e 40 -c 1 -i 13 -a 1 -x {1.0 0.0 6 ------- null}
+ -t 0.565088 -s 0 -d 1 -p tcp -e 1240 -c 1 -i 20 -a 1 -x {0.0 1.0 13 ------- null}
+ -t 0.565088 -s 0 -d 1 -p tcp -e 1240 -c 1 -i 21 -a 1 -x {0.0 1.0 14 ------- null}
- -t 0.565088 -s 0 -d 1 -p tcp -e 1240 -c 1 -i 17 -a 1 -x {0.0 1.0 10 ------- null}
h -t 0.565088 -s 0 -d 1 -p tcp -e 1240 -c 1 -i 17 -a 1 -x {0.0 1.0 -1 ------- null}
- -t 0.56608 -s 0 -d 1 -p tcp -e 1240 -c 1 -i 18 -a 1 -x {0.0 1.0 11 ------- null}
h -t 0.56608 -s 0 -d 1 -p tcp -e 1240 -c 1 -i 18 -a 1 -x {0.0 1.0 -1 ------- null}
- -t 0.567072 -s 0 -d 1 -p tcp -e 1240 -c 1 -i 19 -a 1 -x {0.0 1.0 12 ------- null}
h -t 0.567072 -s 0 -d 1 -p tcp -e 1240 -c 1 -i 19 -a 1 -x {0.0 1.0 -1 ------- null}
- -t 0.568064 -s 0 -d 1 -p tcp -e 1240 -c 1 -i 20 -a 1 -x {0.0 1.0 13 ------- null}
h -t 0.568064 -s 0 -d 1 -p tcp -e 1240 -c 1 -i 20 -a 1 -x {0.0 1.0 -1 ------- null}
- -t 0.569056 -s 0 -d 1 -p tcp -e 1240 -c 1 -i 21 -a 1 -x {0.0 1.0 14 ------- null}
h -t 0.569056 -s 0 -d 1 -p tcp -e 1240 -c 1 -i 21 -a 1 -x {0.0 1.0 -1 ------- null}
r -t 0.573104 -s 0 -d 1 -p tcp -e 1240 -c 1 -i 14 -a 1 -x {0.0 1.0 7 ------- null}
+ -t 0.573104 -s 1 -d 0 -p ack -e 40 -c 1 -i 22 -a 1 -x {1.0 0.0 7 ------- null}
- -t 0.573104 -s 1 -d 0 -p ack -e 40 -c 1 -i 22 -a 1 -x {1.0 0.0 7 ------- null}
h -t 0.573104 -s 1 -d 0 -p ack -e 40 -c 1 -i 22 -a 1 -x {1.0 0.0 -1 ------- null}
r -t 0.574096 -s 0 -d 1 -p tcp -e 1240 -c 1 -i 15 -a 1 -x {0.0 1.0 8 ------- null}
+ -t 0.574096 -s 1 -d 0 -p ack -e 40 -c 1 -i 23 -a 1 -x {1.0 0.0 8 ------- null}
- -t 0.574096 -s 1 -d 0 -p ack -e 40 -c 1 -i 23 -a 1 -x {1.0 0.0 8 ------- null}
h -t 0.574096 -s 1 -d 0 -p ack -e 40 -c 1 -i 23 -a 1 -x {1.0 0.0 -1 ------- null}
r -t 0.575088 -s 0 -d 1 -p tcp -e 1240 -c 1 -i 16 -a 1 -x {0.0 1.0 9 ------- null}
+ -t 0.575088 -s 1 -d 0 -p ack -e 40 -c 1 -i 24 -a 1 -x {1.0 0.0 9 ------- null}
- -t 0.575088 -s 1 -d 0 -p ack -e 40 -c 1 -i 24 -a 1 -x {1.0 0.0 9 ------- null}
h -t 0.575088 -s 1 -d 0 -p ack -e 40 -c 1 -i 24 -a 1 -x {1.0 0.0 -1 ------- null}
r -t 0.57608 -s 0 -d 1 -p tcp -e 1240 -c 1 -i 17 -a 1 -x {0.0 1.0 10 ------- null}
+ -t 0.57608 -s 1 -d 0 -p ack -e 40 -c 1 -i 25 -a 1 -x {1.0 0.0 10 ------- null}
- -t 0.57608 -s 1 -d 0 -p ack -e 40 -c 1 -i 25 -a 1 -x {1.0 0.0 10 ------- null}
h -t 0.57608 -s 1 -d 0 -p ack -e 40 -c 1 -i 25 -a 1 -x {1.0 0.0 -1 ------- null}
r -t 0.577072 -s 0 -d 1 -p tcp -e 1240 -c 1 -i 18 -a 1 -x {0.0 1.0 11 ------- null}
+ -t 0.577072 -s 1 -d 0 -p ack -e 40 -c 1 -i 26 -a 1 -x {1.0 0.0 11 ------- null}
- -t 0.577072 -s 1 -d 0 -p ack -e 40 -c 1 -i 26 -a 1 -x {1.0 0.0 11 ------- null}
h -t 0.577072 -s 1 -d 0 -p ack -e 40 -c 1 -i 26 -a 1 -x {1.0 0.0 -1 ------- null}
r -t 0.578064 -s 0 -d 1 -p tcp -e 1240 -c 1 -i 19 -a 1 -x {0.0 1.0 12 ------- null}
+ -t 0.578064 -s 1 -d 0 -p ack -e 40 -c 1 -i 27 -a 1 -x {1.0 0.0 12 ------- null}
- -t 0.578064 -s 1 -d 0 -p ack -e 40 -c 1 -i 27 -a 1 -x {1.0 0.0 12 ------- null}
h -t 0.578064 -s 1 -d 0 -p ack -e 40 -c 1 -i 27 -a 1 -x {1.0 0.0 -1 ------- null}
r -t 0.579056 -s 0 -d 1 -p tcp -e 1240 -c 1 -i 20 -a 1 -x {0.0 1.0 13 ------- null}
+ -t 0.579056 -s 1 -d 0 -p ack -e 40 -c 1 -i 28 -a 1 -x {1.0 0.0 13 ------- null}
- -t 0.579056 -s 1 -d 0 -p ack -e 40 -c 1 -i 28 -a 1 -x {1.0 0.0 13 ------- null}
h -t 0.579056 -s 1 -d 0 -p ack -e 40 -c 1 -i 28 -a 1 -x {1.0 0.0 -1 ------- null}
r -t 0.580048 -s 0 -d 1 -p tcp -e 1240 -c 1 -i 21 -a 1 -x {0.0 1.0 14 ------- null}
+ -t 0.580048 -s 1 -d 0 -p ack -e 40 -c 1 -i 29 -a 1 -x {1.0 0.0 14 ------- null}
- -t 0.580048 -s 1 -d 0 -p ack -e 40 -c 1 -i 29 -a 1 -x {1.0 0.0 14 ------- null}
h -t 0.580048 -s 1 -d 0 -p ack -e 40 -c 1 -i 29 -a 1 -x {1.0 0.0 -1 ------- null}
r -t 0.583136 -s 1 -d 0 -p ack -e 40 -c 1 -i 22 -a 1 -x {1.0 0.0 7 ------- null}
+ -t 0.583136 -s 0 -d 1 -p tcp -e 1240 -c 1 -i 30 -a 1 -x {0.0 1.0 15 ------- null}
- -t 0.583136 -s 0 -d 1 -p tcp -e 1240 -c 1 -i 30 -a 1 -x {0.0 1.0 15 ------- null}
h -t 0.583136 -s 0 -d 1 -p tcp -e 1240 -c 1 -i 30 -a 1 -x {0.0 1.0 -1 ------- null}
+ -t 0.583136 -s 0 -d 1 -p tcp -e 1240 -c 1 -i 31 -a 1 -x {0.0 1.0 16 ------- null}
r -t 0.584128 -s 1 -d 0 -p ack -e 40 -c 1 -i 23 -a 1 -x {1.0 0.0 8 ------- null}
+ -t 0.584128 -s 0 -d 1 -p tcp -e 1240 -c 1 -i 32 -a 1 -x {0.0 1.0 17 ------- null}
+ -t 0.584128 -s 0 -d 1 -p tcp -e 1240 -c 1 -i 33 -a 1 -x {0.0 1.0 18 ------- null}
- -t 0.584128 -s 0 -d 1 -p tcp -e 1240 -c 1 -i 31 -a 1 -x {0.0 1.0 16 ------- null}
h -t 0.584128 -s 0 -d 1 -p tcp -e 1240 -c 1 -i 31 -a 1 -x {0.0 1.0 -1 ------- null}
r -t 0.58512 -s 1 -d 0 -p ack -e 40 -c 1 -i 24 -a 1 -x {1.0 0.0 9 ------- null}
+ -t 0.58512 -s 0 -d 1 -p tcp -e 1240 -c 1 -i 34 -a 1 -x {0.0 1.0 19 ------- null}
+ -t 0.58512 -s 0 -d 1 -p tcp -e 1240 -c 1 -i 35 -a 1 -x {0.0 1.0 20 ------- null}
- -t 0.58512 -s 0 -d 1 -p tcp -e 1240 -c 1 -i 32 -a 1 -x {0.0 1.0 17 ------- null}
h -t 0.58512 -s 0 -d 1 -p tcp -e 1240 -c 1 -i 32 -a 1 -x {0.0 1.0 -1 ------- null}
r -t 0.586112 -s 1 -d 0 -p ack -e 40 -c 1 -i 25 -a 1 -x {1.0 0.0 10 ------- null}
+ -t 0.586112 -s 0 -d 1 -p tcp -e 1240 -c 1 -i 36 -a 1 -x {0.0 1.0 21 ------- null}
+ -t 0.586112 -s 0 -d 1 -p tcp -e 1240 -c 1 -i 37 -a 1 -x {0.0 1.0 22 ------- null}
- -t 0.586112 -s 0 -d 1 -p tcp -e 1240 -c 1 -i 33 -a 1 -x {0.0 1.0 18 ------- null}
h -t 0.586112 -s 0 -d 1 -p tcp -e 1240 -c 1 -i 33 -a 1 -x {0.0 1.0 -1 ------- null}
r -t 0.587104 -s 1 -d 0 -p ack -e 40 -c 1 -i 26 -a 1 -x {1.0 0.0 11 ------- null}
+ -t 0.587104 -s 0 -d 1 -p tcp -e 1240 -c 1 -i 38 -a 1 -x {0.0 1.0 23 ------- null}
+ -t 0.587104 -s 0 -d 1 -p tcp -e 1240 -c 1 -i 39 -a 1 -x {0.0 1.0 24 ------- null}
- -t 0.587104 -s 0 -d 1 -p tcp -e 1240 -c 1 -i 34 -a 1 -x {0.0 1.0 19 ------- null}
h -t 0.587104 -s 0 -d 1 -p tcp -e 1240 -c 1 -i 34 -a 1 -x {0.0 1.0 -1 ------- null}
r -t 0.588096 -s 1 -d 0 -p ack -e 40 -c 1 -i 27 -a 1 -x {1.0 0.0 12 ------- null}
+ -t 0.588096 -s 0 -d 1 -p tcp -e 1240 -c 1 -i 40 -a 1 -x {0.0 1.0 25 ------- null}
+ -t 0.588096 -s 0 -d 1 -p tcp -e 1240 -c 1 -i 41 -a 1 -x {0.0 1.0 26 ------- null}
- -t 0.588096 -s 0 -d 1 -p tcp -e 1240 -c 1 -i 35 -a 1 -x {0.0 1.0 20 ------- null}
h -t 0.588096 -s 0 -d 1 -p tcp -e 1240 -c 1 -i 35 -a 1 -x {0.0 1.0 -1 ------- null}
r -t 0.589088 -s 1 -d 0 -p ack -e 40 -c 1 -i 28 -a 1 -x {1.0 0.0 13 ------- null}
+ -t 0.589088 -s 0 -d 1 -p tcp -e 1240 -c 1 -i 42 -a 1 -x {0.0 1.0 27 ------- null}
+ -t 0.589088 -s 0 -d 1 -p tcp -e 1240 -c 1 -i 43 -a 1 -x {0.0 1.0 28 ------- null}
- -t 0.589088 -s 0 -d 1 -p tcp -e 1240 -c 1 -i 36 -a 1 -x {0.0 1.0 21 ------- null}
h -t 0.589088 -s 0 -d 1 -p tcp -e 1240 -c 1 -i 36 -a 1 -x {0.0 1.0 -1 ------- null}
r -t 0.59008 -s 1 -d 0 -p ack -e 40 -c 1 -i 29 -a 1 -x {1.0 0.0 14 ------- null}
+ -t 0.59008 -s 0 -d 1 -p tcp -e 1240 -c 1 -i 44 -a 1 -x {0.0 1.0 29 ------- null}
+ -t 0.59008 -s 0 -d 1 -p tcp -e 1240 -c 1 -i 45 -a 1 -x {0.0 1.0 30 ------- null}
- -t 0.59008 -s 0 -d 1 -p tcp -e 1240 -c 1 -i 37 -a 1 -x {0.0 1.0 22 ------- null}
h -t 0.59008 -s 0 -d 1 -p tcp -e 1240 -c 1 -i 37 -a 1 -x {0.0 1.0 -1 ------- null}
- -t 0.591072 -s 0 -d 1 -p tcp -e 1240 -c 1 -i 38 -a 1 -x {0.0 1.0 23 ------- null}
h -t 0.591072 -s 0 -d 1 -p tcp -e 1240 -c 1 -i 38 -a 1 -x {0.0 1.0 -1 ------- null}
- -t 0.592064 -s 0 -d 1 -p tcp -e 1240 -c 1 -i 39 -a 1 -x {0.0 1.0 24 ------- null}
h -t 0.592064 -s 0 -d 1 -p tcp -e 1240 -c 1 -i 39 -a 1 -x {0.0 1.0 -1 ------- null}
- -t 0.593056 -s 0 -d 1 -p tcp -e 1240 -c 1 -i 40 -a 1 -x {0.0 1.0 25 ------- null}
h -t 0.593056 -s 0 -d 1 -p tcp -e 1240 -c 1 -i 40 -a 1 -x {0.0 1.0 -1 ------- null}
- -t 0.594048 -s 0 -d 1 -p tcp -e 1240 -c 1 -i 41 -a 1 -x {0.0 1.0 26 ------- null}
h -t 0.594048 -s 0 -d 1 -p tcp -e 1240 -c 1 -i 41 -a 1 -x {0.0 1.0 -1 ------- null}
r -t 0.594128 -s 0 -d 1 -p tcp -e 1240 -c 1 -i 30 -a 1 -x {0.0 1.0 15 ------- null}
+ -t 0.594128 -s 1 -d 0 -p ack -e 40 -c 1 -i 46 -a 1 -x {1.0 0.0 15 ------- null}
- -t 0.594128 -s 1 -d 0 -p ack -e 40 -c 1 -i 46 -a 1 -x {1.0 0.0 15 ------- null}
h -t 0.594128 -s 1 -d 0 -p ack -e 40 -c 1 -i 46 -a 1 -x {1.0 0.0 -1 ------- null}
- -t 0.59504 -s 0 -d 1 -p tcp -e 1240 -c 1 -i 42 -a 1 -x {0.0 1.0 27 ------- null}
h -t 0.59504 -s 0 -d 1 -p tcp -e 1240 -c 1 -i 42 -a 1 -x {0.0 1.0 -1 ------- null}
r -t 0.59512 -s 0 -d 1 -p tcp -e 1240 -c 1 -i 31 -a 1 -x {0.0 1.0 16 ------- null}
+ -t 0.59512 -s 1 -d 0 -p ack -e 40 -c 1 -i 47 -a 1 -x {1.0 0.0 16 ------- null}
- -t 0.59512 -s 1 -d 0 -p ack -e 40 -c 1 -i 47 -a 1 -x {1.0 0.0 16 ------- null}
h -t 0.59512 -s 1 -d 0 -p ack -e 40 -c 1 -i 47 -a 1 -x {1.0 0.0 -1 ------- null}
- -t 0.596032 -s 0 -d 1 -p tcp -e 1240 -c 1 -i 43 -a 1 -x {0.0 1.0 28 ------- null}
h -t 0.596032 -s 0 -d 1 -p tcp -e 1240 -c 1 -i 43 -a 1 -x {0.0 1.0 -1 ------- null}
r -t 0.596112 -s 0 -d 1 -p tcp -e 1240 -c 1 -i 32 -a 1 -x {0.0 1.0 17 ------- null}
+ -t 0.596112 -s 1 -d 0 -p ack -e 40 -c 1 -i 48 -a 1 -x {1.0 0.0 17 ------- null}
- -t 0.596112 -s 1 -d 0 -p ack -e 40 -c 1 -i 48 -a 1 -x {1.0 0.0 17 ------- null}
h -t 0.596112 -s 1 -d 0 -p ack -e 40 -c 1 -i 48 -a 1 -x {1.0 0.0 -1 ------- null}
- -t 0.597024 -s 0 -d 1 -p tcp -e 1240 -c 1 -i 44 -a 1 -x {0.0 1.0 29 ------- null}
h -t 0.597024 -s 0 -d 1 -p tcp -e 1240 -c 1 -i 44 -a 1 -x {0.0 1.0 -1 ------- null}
r -t 0.597104 -s 0 -d 1 -p tcp -e 1240 -c 1 -i 33 -a 1 -x {0.0 1.0 18 ------- null}
+ -t 0.597104 -s 1 -d 0 -p ack -e 40 -c 1 -i 49 -a 1 -x {1.0 0.0 18 ------- null}
- -t 0.597104 -s 1 -d 0 -p ack -e 40 -c 1 -i 49 -a 1 -x {1.0 0.0 18 ------- null}
h -t 0.597104 -s 1 -d 0 -p ack -e 40 -c 1 -i 49 -a 1 -x {1.0 0.0 -1 ------- null}
- -t 0.598016 -s 0 -d 1 -p tcp -e 1240 -c 1 -i 45 -a 1 -x {0.0 1.0 30 ------- null}
h -t 0.598016 -s 0 -d 1 -p tcp -e 1240 -c 1 -i 45 -a 1 -x {0.0 1.0 -1 ------- null}
r -t 0.598096 -s 0 -d 1 -p tcp -e 1240 -c 1 -i 34 -a 1 -x {0.0 1.0 19 ------- null}
+ -t 0.598096 -s 1 -d 0 -p ack -e 40 -c 1 -i 50 -a 1 -x {1.0 0.0 19 ------- null}
- -t 0.598096 -s 1 -d 0 -p ack -e 40 -c 1 -i 50 -a 1 -x {1.0 0.0 19 ------- null}
h -t 0.598096 -s 1 -d 0 -p ack -e 40 -c 1 -i 50 -a 1 -x {1.0 0.0 -1 ------- null}
r -t 0.599088 -s 0 -d 1 -p tcp -e 1240 -c 1 -i 35 -a 1 -x {0.0 1.0 20 ------- null}
+ -t 0.599088 -s 1 -d 0 -p ack -e 40 -c 1 -i 51 -a 1 -x {1.0 0.0 20 ------- null}
- -t 0.599088 -s 1 -d 0 -p ack -e 40 -c 1 -i 51 -a 1 -x {1.0 0.0 20 ------- null}
h -t 0.599088 -s 1 -d 0 -p ack -e 40 -c 1 -i 51 -a 1 -x {1.0 0.0 -1 ------- null}
r -t 0.60008 -s 0 -d 1 -p tcp -e 1240 -c 1 -i 36 -a 1 -x {0.0 1.0 21 ------- null}
+ -t 0.60008 -s 1 -d 0 -p ack -e 40 -c 1 -i 52 -a 1 -x {1.0 0.0 21 ------- null}
- -t 0.60008 -s 1 -d 0 -p ack -e 40 -c 1 -i 52 -a 1 -x {1.0 0.0 21 ------- null}
h -t 0.60008 -s 1 -d 0 -p ack -e 40 -c 1 -i 52 -a 1 -x {1.0 0.0 -1 ------- null}
r -t 0.601072 -s 0 -d 1 -p tcp -e 1240 -c 1 -i 37 -a 1 -x {0.0 1.0 22 ------- null}
+ -t 0.601072 -s 1 -d 0 -p ack -e 40 -c 1 -i 53 -a 1 -x {1.0 0.0 22 ------- null}
- -t 0.601072 -s 1 -d 0 -p ack -e 40 -c 1 -i 53 -a 1 -x {1.0 0.0 22 ------- null}
h -t 0.601072 -s 1 -d 0 -p ack -e 40 -c 1 -i 53 -a 1 -x {1.0 0.0 -1 ------- null}
r -t 0.602064 -s 0 -d 1 -p tcp -e 1240 -c 1 -i 38 -a 1 -x {0.0 1.0 23 ------- null}
+ -t 0.602064 -s 1 -d 0 -p ack -e 40 -c 1 -i 54 -a 1 -x {1.0 0.0 23 ------- null}
- -t 0.602064 -s 1 -d 0 -p ack -e 40 -c 1 -i 54 -a 1 -x {1.0 0.0 23 ------- null}
h -t 0.602064 -s 1 -d 0 -p ack -e 40 -c 1 -i 54 -a 1 -x {1.0 0.0 -1 ------- null}
r -t 0.603056 -s 0 -d 1 -p tcp -e 1240 -c 1 -i 39 -a 1 -x {0.0 1.0 24 ------- null}
+ -t 0.603056 -s 1 -d 0 -p ack -e 40 -c 1 -i 55 -a 1 -x {1.0 0.0 24 ------- null}
- -t 0.603056 -s 1 -d 0 -p ack -e 40 -c 1 -i 55 -a 1 -x {1.0 0.0 24 ------- null}
h -t 0.603056 -s 1 -d 0 -p ack -e 40 -c 1 -i 55 -a 1 -x {1.0 0.0 -1 ------- null}
r -t 0.604048 -s 0 -d 1 -p tcp -e 1240 -c 1 -i 40 -a 1 -x {0.0 1.0 25 ------- null}
+ -t 0.604048 -s 1 -d 0 -p ack -e 40 -c 1 -i 56 -a 1 -x {1.0 0.0 25 ------- null}
- -t 0.604048 -s 1 -d 0 -p ack -e 40 -c 1 -i 56 -a 1 -x {1.0 0.0 25 ------- null}
h -t 0.604048 -s 1 -d 0 -p ack -e 40 -c 1 -i 56 -a 1 -x {1.0 0.0 -1 ------- null}
r -t 0.60416 -s 1 -d 0 -p ack -e 40 -c 1 -i 46 -a 1 -x {1.0 0.0 15 ------- null}
+ -t 0.60416 -s 0 -d 1 -p tcp -e 1240 -c 1 -i 57 -a 1 -x {0.0 1.0 31 ------- null}
- -t 0.60416 -s 0 -d 1 -p tcp -e 1240 -c 1 -i 57 -a 1 -x {0.0 1.0 31 ------- null}
h -t 0.60416 -s 0 -d 1 -p tcp -e 1240 -c 1 -i 57 -a 1 -x {0.0 1.0 -1 ------- null}
+ -t 0.60416 -s 0 -d 1 -p tcp -e 1240 -c 1 -i 58 -a 1 -x {0.0 1.0 32 ------- null}
r -t 0.60504 -s 0 -d 1 -p tcp -e 1240 -c 1 -i 41 -a 1 -x {0.0 1.0 26 ------- null}
+ -t 0.60504 -s 1 -d 0 -p ack -e 40 -c 1 -i 59 -a 1 -x {1.0 0.0 26 ------- null}
- -t 0.60504 -s 1 -d 0 -p ack -e 40 -c 1 -i 59 -a 1 -x {1.0 0.0 26 ------- null}
h -t 0.60504 -s 1 -d 0 -p ack -e 40 -c 1 -i 59 -a 1 -x {1.0 0.0 -1 ------- null}
r -t 0.605152 -s 1 -d 0 -p ack -e 40 -c 1 -i 47 -a 1 -x {1.0 0.0 16 ------- null}
+ -t 0.605152 -s 0 -d 1 -p tcp -e 1240 -c 1 -i 60 -a 1 -x {0.0 1.0 33 ------- null}
+ -t 0.605152 -s 0 -d 1 -p tcp -e 1240 -c 1 -i 61 -a 1 -x {0.0 1.0 34 ------- null}
- -t 0.605152 -s 0 -d 1 -p tcp -e 1240 -c 1 -i 58 -a 1 -x {0.0 1.0 32 ------- null}
h -t 0.605152 -s 0 -d 1 -p tcp -e 1240 -c 1 -i 58 -a 1 -x {0.0 1.0 -1 ------- null}
r -t 0.606032 -s 0 -d 1 -p tcp -e 1240 -c 1 -i 42 -a 1 -x {0.0 1.0 27 ------- null}
+ -t 0.606032 -s 1 -d 0 -p ack -e 40 -c 1 -i 62 -a 1 -x {1.0 0.0 27 ------- null}
- -t 0.606032 -s 1 -d 0 -p ack -e 40 -c 1 -i 62 -a 1 -x {1.0 0.0 27 ------- null}
h -t 0.606032 -s 1 -d 0 -p ack -e 40 -c 1 -i 62 -a 1 -x {1.0 0.0 -1 ------- null}
r -t 0.606144 -s 1 -d 0 -p ack -e 40 -c 1 -i 48 -a 1 -x {1.0 0.0 17 ------- null}
+ -t 0.606144 -s 0 -d 1 -p tcp -e 1240 -c 1 -i 63 -a 1 -x {0.0 1.0 35 ------- null}
+ -t 0.606144 -s 0 -d 1 -p tcp -e 1240 -c 1 -i 64 -a 1 -x {0.0 1.0 36 ------- null}
- -t 0.606144 -s 0 -d 1 -p tcp -e 1240 -c 1 -i 60 -a 1 -x {0.0 1.0 33 ------- null}
h -t 0.606144 -s 0 -d 1 -p tcp -e 1240 -c 1 -i 60 -a 1 -x {0.0 1.0 -1 ------- null}
r -t 0.607024 -s 0 -d 1 -p tcp -e 1240 -c 1 -i 43 -a 1 -x {0.0 1.0 28 ------- null}
+ -t 0.607024 -s 1 -d 0 -p ack -e 40 -c 1 -i 65 -a 1 -x {1.0 0.0 28 ------- null}
- -t 0.607024 -s 1 -d 0 -p ack -e 40 -c 1 -i 65 -a 1 -x {1.0 0.0 28 ------- null}
h -t 0.607024 -s 1 -d 0 -p ack -e 40 -c 1 -i 65 -a 1 -x {1.0 0.0 -1 ------- null}
r -t 0.607136 -s 1 -d 0 -p ack -e 40 -c 1 -i 49 -a 1 -x {1.0 0.0 18 ------- null}
+ -t 0.607136 -s 0 -d 1 -p tcp -e 1240 -c 1 -i 66 -a 1 -x {0.0 1.0 37 ------- null}
+ -t 0.607136 -s 0 -d 1 -p tcp -e 1240 -c 1 -i 67 -a 1 -x {0.0 1.0 38 ------- null}
- -t 0.607136 -s 0 -d 1 -p tcp -e 1240 -c 1 -i 61 -a 1 -x {0.0 1.0 34 ------- null}
h -t 0.607136 -s 0 -d 1 -p tcp -e 1240 -c 1 -i 61 -a 1 -x {0.0 1.0 -1 ------- null}
r -t 0.608016 -s 0 -d 1 -p tcp -e 1240 -c 1 -i 44 -a 1 -x {0.0 1.0 29 ------- null}
+ -t 0.608016 -s 1 -d 0 -p ack -e 40 -c 1 -i 68 -a 1 -x {1.0 0.0 29 ------- null}
- -t 0.608016 -s 1 -d 0 -p ack -e 40 -c 1 -i 68 -a 1 -x {1.0 0.0 29 ------- null}
h -t 0.608016 -s 1 -d 0 -p ack -e 40 -c 1 -i 68 -a 1 -x {1.0 0.0 -1 ------- null}
r -t 0.608128 -s 1 -d 0 -p ack -e 40 -c 1 -i 50 -a 1 -x {1.0 0.0 19 ------- null}
+ -t 0.608128 -s 0 -d 1 -p tcp -e 1240 -c 1 -i 69 -a 1 -x {0.0 1.0 39 ------- null}
+ -t 0.608128 -s 0 -d 1 -p tcp -e 1240 -c 1 -i 70 -a 1 -x {0.0 1.0 40 ------- null}
- -t 0.608128 -s 0 -d 1 -p tcp -e 1240 -c 1 -i 63 -a 1 -x {0.0 1.0 35 ------- null}
h -t 0.608128 -s 0 -d 1 -p tcp -e 1240 -c 1 -i 63 -a 1 -x {0.0 1.0 -1 ------- null}
r -t 0.609008 -s 0 -d 1 -p tcp -e 1240 -c 1 -i 45 -a 1 -x {0.0 1.0 30 ------- null}
+ -t 0.609008 -s 1 -d 0 -p ack -e 40 -c 1 -i 71 -a 1 -x {1.0 0.0 30 ------- null}
- -t 0.609008 -s 1 -d 0 -p ack -e 40 -c 1 -i 71 -a 1 -x {1.0 0.0 30 ------- null}
h -t 0.609008 -s 1 -d 0 -p ack -e 40 -c 1 -i 71 -a 1 -x {1.0 0.0 -1 ------- null}
r -t 0.60912 -s 1 -d 0 -p ack -e 40 -c 1 -i 51 -a 1 -x {1.0 0.0 20 ------- null}
+ -t 0.60912 -s 0 -d 1 -p tcp -e 1240 -c 1 -i 72 -a 1 -x {0.0 1.0 41 ------- null}
+ -t 0.60912 -s 0 -d 1 -p tcp -e 1240 -c 1 -i 73 -a 1 -x {0.0 1.0 42 ------- null}
- -t 0.60912 -s 0 -d 1 -p tcp -e 1240 -c 1 -i 64 -a 1 -x {0.0 1.0 36 ------- null}
h -t 0.60912 -s 0 -d 1 -p tcp -e 1240 -c 1 -i 64 -a 1 -x {0.0 1.0 -1 ------- null}
r -t 0.610112 -s 1 -d 0 -p ack -e 40 -c 1 -i 52 -a 1 -x {1.0 0.0 21 ------- null}
+ -t 0.610112 -s 0 -d 1 -p tcp -e 1240 -c 1 -i 74 -a 1 -x {0.0 1.0 43 ------- null}
+ -t 0.610112 -s 0 -d 1 -p tcp -e 1240 -c 1 -i 75 -a 1 -x {0.0 1.0 44 ------- null}
- -t 0.610112 -s 0 -d 1 -p tcp -e 1240 -c 1 -i 66 -a 1 -x {0.0 1.0 37 ------- null}
h -t 0.610112 -s 0 -d 1 -p tcp -e 1240 -c 1 -i 66 -a 1 -x {0.0 1.0 -1 ------- null}
r -t 0.611104 -s 1 -d 0 -p ack -e 40 -c 1 -i 53 -a 1 -x {1.0 0.0 22 ------- null}
+ -t 0.611104 -s 0 -d 1 -p tcp -e 1240 -c 1 -i 76 -a 1 -x {0.0 1.0 45 ------- null}
+ -t 0.611104 -s 0 -d 1 -p tcp -e 1240 -c 1 -i 77 -a 1 -x {0.0 1.0 46 ------- null}
- -t 0.611104 -s 0 -d 1 -p tcp -e 1240 -c 1 -i 67 -a 1 -x {0.0 1.0 38 ------- null}
h -t 0.611104 -s 0 -d 1 -p tcp -e 1240 -c 1 -i 67 -a 1 -x {0.0 1.0 -1 ------- null}
r -t 0.612096 -s 1 -d 0 -p ack -e 40 -c 1 -i 54 -a 1 -x {1.0 0.0 23 ------- null}
+ -t 0.612096 -s 0 -d 1 -p tcp -e 1240 -c 1 -i 78 -a 1 -x {0.0 1.0 47 ------- null}
+ -t 0.612096 -s 0 -d 1 -p tcp -e 1240 -c 1 -i 79 -a 1 -x {0.0 1.0 48 ------- null}
- -t 0.612096 -s 0 -d 1 -p tcp -e 1240 -c 1 -i 69 -a 1 -x {0.0 1.0 39 ------- null}
h -t 0.612096 -s 0 -d 1 -p tcp -e 1240 -c 1 -i 69 -a 1 -x {0.0 1.0 -1 ------- null}
r -t 0.613088 -s 1 -d 0 -p ack -e 40 -c 1 -i 55 -a 1 -x {1.0 0.0 24 ------- null}
+ -t 0.613088 -s 0 -d 1 -p tcp -e 1240 -c 1 -i 80 -a 1 -x {0.0 1.0 49 ------- null}
+ -t 0.613088 -s 0 -d 1 -p tcp -e 1240 -c 1 -i 81 -a 1 -x {0.0 1.0 50 ------- null}
- -t 0.613088 -s 0 -d 1 -p tcp -e 1240 -c 1 -i 70 -a 1 -x {0.0 1.0 40 ------- null}
h -t 0.613088 -s 0 -d 1 -p tcp -e 1240 -c 1 -i 70 -a 1 -x {0.0 1.0 -1 ------- null}
r -t 0.61408 -s 1 -d 0 -p ack -e 40 -c 1 -i 56 -a 1 -x {1.0 0.0 25 ------- null}
+ -t 0.61408 -s 0 -d 1 -p tcp -e 1240 -c 1 -i 82 -a 1 -x {0.0 1.0 51 ------- null}
+ -t 0.61408 -s 0 -d 1 -p tcp -e 1240 -c 1 -i 83 -a 1 -x {0.0 1.0 52 ------- null}
- -t 0.61408 -s 0 -d 1 -p tcp -e 1240 -c 1 -i 72 -a 1 -x {0.0 1.0 41 ------- null}
h -t 0.61408 -s 0 -d 1 -p tcp -e 1240 -c 1 -i 72 -a 1 -x {0.0 1.0 -1 ------- null}
r -t 0.615072 -s 1 -d 0 -p ack -e 40 -c 1 -i 59 -a 1 -x {1.0 0.0 26 ------- null}
+ -t 0.615072 -s 0 -d 1 -p tcp -e 1240 -c 1 -i 84 -a 1 -x {0.0 1.0 53 ------- null}
+ -t 0.615072 -s 0 -d 1 -p tcp -e 1240 -c 1 -i 85 -a 1 -x {0.0 1.0 54 ------- null}
- -t 0.615072 -s 0 -d 1 -p tcp -e 1240 -c 1 -i 73 -a 1 -x {0.0 1.0 42 ------- null}
h -t 0.615072 -s 0 -d 1 -p tcp -e 1240 -c 1 -i 73 -a 1 -x {0.0 1.0 -1 ------- null}
r -t 0.615152 -s 0 -d 1 -p tcp -e 1240 -c 1 -i 57 -a 1 -x {0.0 1.0 31 ------- null}
+ -t 0.615152 -s 1 -d 0 -p ack -e 40 -c 1 -i 86 -a 1 -x {1.0 0.0 31 ------- null}
- -t 0.615152 -s 1 -d 0 -p ack -e 40 -c 1 -i 86 -a 1 -x {1.0 0.0 31 ------- null}
h -t 0.615152 -s 1 -d 0 -p ack -e 40 -c 1 -i 86 -a 1 -x {1.0 0.0 -1 ------- null}
r -t 0.616064 -s 1 -d 0 -p ack -e 40 -c 1 -i 62 -a 1 -x {1.0 0.0 27 ------- null}
+ -t 0.616064 -s 0 -d 1 -p tcp -e 1240 -c 1 -i 87 -a 1 -x {0.0 1.0 55 ------- null}
+ -t 0.616064 -s 0 -d 1 -p tcp -e 1240 -c 1 -i 88 -a 1 -x {0.0 1.0 56 ------- null}
- -t 0.616064 -s 0 -d 1 -p tcp -e 1240 -c 1 -i 74 -a 1 -x {0.0 1.0 43 ------- null}
h -t 0.616064 -s 0 -d 1 -p tcp -e 1240 -c 1 -i 74 -a 1 -x {0.0 1.0 -1 ------- null}
r -t 0.616144 -s 0 -d 1 -p tcp -e 1240 -c 1 -i 58 -a 1 -x {0.0 1.0 32 ------- null}
+ -t 0.616144 -s 1 -d 0 -p ack -e 40 -c 1 -i 89 -a 1 -x {1.0 0.0 32 ------- null}
- -t 0.616144 -s 1 -d 0 -p ack -e 40 -c 1 -i 89 -a 1 -x {1.0 0.0 32 ------- null}
h -t 0.616144 -s 1 -d 0 -p ack -e 40 -c 1 -i 89 -a 1 -x {1.0 0.0 -1 ------- null}
r -t 0.617056 -s 1 -d 0 -p ack -e 40 -c 1 -i 65 -a 1 -x {1.0 0.0 28 ------- null}
+ -t 0.617056 -s 0 -d 1 -p tcp -e 1240 -c 1 -i 90 -a 1 -x {0.0 1.0 57 ------- null}
+ -t 0.617056 -s 0 -d 1 -p tcp -e 1240 -c 1 -i 91 -a 1 -x {0.0 1.0 58 ------- null}
- -t 0.617056 -s 0 -d 1 -p tcp -e 1240 -c 1 -i 75 -a 1 -x {0.0 1.0 44 ------- null}
h -t 0.617056 -s 0 -d 1 -p tcp -e 1240 -c 1 -i 75 -a 1 -x {0.0 1.0 -1 ------- null}
r -t 0.617136 -s 0 -d 1 -p tcp -e 1240 -c 1 -i 60 -a 1 -x {0.0 1.0 33 ------- null}
+ -t 0.617136 -s 1 -d 0 -p ack -e 40 -c 1 -i 92 -a 1 -x {1.0 0.0 33 ------- null}
- -t 0.617136 -s 1 -d 0 -p ack -e 40 -c 1 -i 92 -a 1 -x {1.0 0.0 33 ------- null}
h -t 0.617136 -s 1 -d 0 -p ack -e 40 -c 1 -i 92 -a 1 -x {1.0 0.0 -1 ------- null}
r -t 0.618048 -s 1 -d 0 -p ack -e 40 -c 1 -i 68 -a 1 -x {1.0 0.0 29 ------- null}
+ -t 0.618048 -s 0 -d 1 -p tcp -e 1240 -c 1 -i 93 -a 1 -x {0.0 1.0 59 ------- null}
+ -t 0.618048 -s 0 -d 1 -p tcp -e 1240 -c 1 -i 94 -a 1 -x {0.0 1.0 60 ------- null}
- -t 0.618048 -s 0 -d 1 -p tcp -e 1240 -c 1 -i 76 -a 1 -x {0.0 1.0 45 ------- null}
h -t 0.618048 -s 0 -d 1 -p tcp -e 1240 -c 1 -i 76 -a 1 -x {0.0 1.0 -1 ------- null}
r -t 0.618128 -s 0 -d 1 -p tcp -e 1240 -c 1 -i 61 -a 1 -x {0.0 1.0 34 ------- null}
+ -t 0.618128 -s 1 -d 0 -p ack -e 40 -c 1 -i 95 -a 1 -x {1.0 0.0 34 ------- null}
- -t 0.618128 -s 1 -d 0 -p ack -e 40 -c 1 -i 95 -a 1 -x {1.0 0.0 34 ------- null}
h -t 0.618128 -s 1 -d 0 -p ack -e 40 -c 1 -i 95 -a 1 -x {1.0 0.0 -1 ------- null}
r -t 0.61904 -s 1 -d 0 -p ack -e 40 -c 1 -i 71 -a 1 -x {1.0 0.0 30 ------- null}
+ -t 0.61904 -s 0 -d 1 -p tcp -e 1240 -c 1 -i 96 -a 1 -x {0.0 1.0 61 ------- null}
+ -t 0.61904 -s 0 -d 1 -p tcp -e 1240 -c 1 -i 97 -a 1 -x {0.0 1.0 62 ------- null}
- -t 0.61904 -s 0 -d 1 -p tcp -e 1240 -c 1 -i 77 -a 1 -x {0.0 1.0 46 ------- null}
h -t 0.61904 -s 0 -d 1 -p tcp -e 1240 -c 1 -i 77 -a 1 -x {0.0 1.0 -1 ------- null}
r -t 0.61912 -s 0 -d 1 -p tcp -e 1240 -c 1 -i 63 -a 1 -x {0.0 1.0 35 ------- null}
+ -t 0.61912 -s 1 -d 0 -p ack -e 40 -c 1 -i 98 -a 1 -x {1.0 0.0 35 ------- null}
- -t 0.61912 -s 1 -d 0 -p ack -e 40 -c 1 -i 98 -a 1 -x {1.0 0.0 35 ------- null}
h -t 0.61912 -s 1 -d 0 -p ack -e 40 -c 1 -i 98 -a 1 -x {1.0 0.0 -1 ------- null}
- -t 0.620032 -s 0 -d 1 -p tcp -e 1240 -c 1 -i 78 -a 1 -x {0.0 1.0 47 ------- null}
h -t 0.620032 -s 0 -d 1 -p tcp -e 1240 -c 1 -i 78 -a 1 -x {0.0 1.0 -1 ------- null}
r -t 0.620112 -s 0 -d 1 -p tcp -e 1240 -c 1 -i 64 -a 1 -x {0.0 1.0 36 ------- null}
+ -t 0.620112 -s 1 -d 0 -p ack -e 40 -c 1 -i 99 -a 1 -x {1.0 0.0 36 ------- null}
- -t 0.620112 -s 1 -d 0 -p ack -e 40 -c 1 -i 99 -a 1 -x {1.0 0.0 36 ------- null}
h -t 0.620112 -s 1 -d 0 -p ack -e 40 -c 1 -i 99 -a 1 -x {1.0 0.0 -1 ------- null}
- -t 0.621024 -s 0 -d 1 -p tcp -e 1240 -c 1 -i 79 -a 1 -x {0.0 1.0 48 ------- null}
h -t 0.621024 -s 0 -d 1 -p tcp -e 1240 -c 1 -i 79 -a 1 -x {0.0 1.0 -1 ------- null}
r -t 0.621104 -s 0 -d 1 -p tcp -e 1240 -c 1 -i 66 -a 1 -x {0.0 1.0 37 ------- null}
+ -t 0.621104 -s 1 -d 0 -p ack -e 40 -c 1 -i 100 -a 1 -x {1.0 0.0 37 ------- null}
- -t 0.621104 -s 1 -d 0 -p ack -e 40 -c 1 -i 100 -a 1 -x {1.0 0.0 37 ------- null}
h -t 0.621104 -s 1 -d 0 -p ack -e 40 -c 1 -i 100 -a 1 -x {1.0 0.0 -1 ------- null}
- -t 0.622016 -s 0 -d 1 -p tcp -e 1240 -c 1 -i 80 -a 1 -x {0.0 1.0 49 ------- null}
h -t 0.622016 -s 0 -d 1 -p tcp -e 1240 -c 1 -i 80 -a 1 -x {0.0 1.0 -1 ------- null}
r -t 0.622096 -s 0 -d 1 -p tcp -e 1240 -c 1 -i 67 -a 1 -x {0.0 1.0 38 ------- null}
+ -t 0.622096 -s 1 -d 0 -p ack -e 40 -c 1 -i 101 -a 1 -x {1.0 0.0 38 ------- null}
- -t 0.622096 -s 1 -d 0 -p ack -e 40 -c 1 -i 101 -a 1 -x {1.0 0.0 38 ------- null}
h -t 0.622096 -s 1 -d 0 -p ack -e 40 -c 1 -i 101 -a 1 -x {1.0 0.0 -1 ------- null}
- -t 0.623008 -s 0 -d 1 -p tcp -e 1240 -c 1 -i 81 -a 1 -x {0.0 1.0 50 ------- null}
h -t 0.623008 -s 0 -d 1 -p tcp -e 1240 -c 1 -i 81 -a 1 -x {0.0 1.0 -1 ------- null}
r -t 0.623088 -s 0 -d 1 -p tcp -e 1240 -c 1 -i 69 -a 1 -x {0.0 1.0 39 ------- null}
+ -t 0.623088 -s 1 -d 0 -p ack -e 40 -c 1 -i 102 -a 1 -x {1.0 0.0 39 ------- null}
- -t 0.623088 -s 1 -d 0 -p ack -e 40 -c 1 -i 102 -a 1 -x {1.0 0.0 39 ------- null}
h -t 0.623088 -s 1 -d 0 -p ack -e 40 -c 1 -i 102 -a 1 -x {1.0 0.0 -1 ------- null}
- -t 0.624 -s 0 -d 1 -p tcp -e 1240 -c 1 -i 82 -a 1 -x {0.0 1.0 51 ------- null}