V -t * -v 1.0a5 -a 0
A -t * -n 1 -p 0 -o 0x7fffffff -c 30 -a 1
A -t * -h 1 -m 1073741823 -s 0
c -t * -i 1 -n Blue
c -t * -i 2 -n Red
n -t * -a 0 -s 0 -S UP -v circle -c black -i black
n -t * -a 1 -s 1 -S UP -v circle -c black -i black
n -t * -a 2 -s 2 -S UP -v circle -c black -i black
l -t * -s 0 -d 1 -S UP -r 10000000 -D 0.01 -c black -o right-up
l -t * -s 1 -d 2 -S UP -r 2000000 -D 0.01 -c black -o right-down
q -t * -s 2 -d 1 -a 0.5
q -t * -s 1 -d 2 -a 0.5
+ -t 0.5 -s 0 -d 1 -p tcp -e 40 -c 1 -i 0 -a 1 -x {0.0 2.0 0 ------- null}
- -t 0.5 -s 0 -d 1 -p tcp -e 40 -c 1 -i 0 -a 1 -x {0.0 2.0 0 ------- null}
h -t 0.5 -s 0 -d 1 -p tcp -e 40 -c 1 -i 0 -a 1 -x {0.0 2.0 -1 ------- null}
r -t 0.510032 -s 0 -d 1 -p tcp -e 40 -c 1 -i 0 -a 1 -x {0.0 2.0 0 ------- null}
+ -t 0.510032 -s 1 -d 2 -p tcp -e 40 -c 1 -i 0 -a 1 -x {0.0 2.0 0 ------- null}
- -t 0.510032 -s 1 -d 2 -p tcp -e 40 -c 1 -i 0 -a 1 -x {0.0 2.0 0 ------- null}
h -t 0.510032 -s 1 -d 2 -p tcp -e 40 -c 1 -i 0 -a 1 -x {0.0 2.0 -1 ------- null}
r -t 0.520192 -s 1 -d 2 -p tcp -e 40 -c 1 -i 0 -a 1 -x {0.0 2.0 0 ------- null}
+ -t 0.520192 -s 2 -d 1 -p ack -e 40 -c 1 -i 1 -a 1 -x {2.0 0.0 0 ------- null}
- -t 0.520192 -s 2 -d 1 -p ack -e 40 -c 1 -i 1 -a 1 -x {2.0 0.0 0 ------- null}
h -t 0.520192 -s 2 -d 1 -p ack -e 40 -c 1 -i 1 -a 1 -x {2.0 0.0 -1 ------- null}
r -t 0.530352 -s 2 -d 1 -p ack -e 40 -c 1 -i 1 -a 1 -x {2.0 0.0 0 ------- null}
+ -t 0.530352 -s 1 -d 0 -p ack -e 40 -c 1 -i 1 -a 1 -x {2.0 0.0 0 ------- null}
- -t 0.530352 -s 1 -d 0 -p ack -e 40 -c 1 -i 1 -a 1 -x {2.0 0.0 0 ------- null}
h -t 0.530352 -s 1 -d 0 -p ack -e 40 -c 1 -i 1 -a 1 -x {2.0 0.0 -1 ------- null}
r -t 0.540384 -s 1 -d 0 -p ack -e 40 -c 1 -i 1 -a 1 -x {2.0 0.0 0 ------- null}
+ -t 0.540384 -s 0 -d 1 -p tcp -e 1240 -c 1 -i 2 -a 1 -x {0.0 2.0 1 ------- null}
- -t 0.540384 -s 0 -d 1 -p tcp -e 1240 -c 1 -i 2 -a 1 -x {0.0 2.0 1 ------- null}
h -t 0.540384 -s 0 -d 1 -p tcp -e 1240 -c 1 -i 2 -a 1 -x {0.0 2.0 -1 ------- null}
+ -t 0.540384 -s 0 -d 1 -p tcp -e 1240 -c 1 -i 3 -a 1 -x {0.0 2.0 2 ------- null}
- -t 0.541376 -s 0 -d 1 -p tcp -e 1240 -c 1 -i 3 -a 1 -x {0.0 2.0 2 ------- null}
h -t 0.541376 -s 0 -d 1 -p tcp -e 1240 -c 1 -i 3 -a 1 -x {0.0 2.0 -1 ------- null}
r -t 0.551376 -s 0 -d 1 -p tcp -e 1240 -c 1 -i 2 -a 1 -x {0.0 2.0 1 ------- null}
+ -t 0.551376 -s 1 -d 2 -p tcp -e 1240 -c 1 -i 2 -a 1 -x {0.0 2.0 1 ------- null}
- -t 0.551376 -s 1 -d 2 -p tcp -e 1240 -c 1 -i 2 -a 1 -x {0.0 2.0 1 ------- null}
h -t 0.551376 -s 1 -d 2 -p tcp -e 1240 -c 1 -i 2 -a 1 -x {0.0 2.0 -1 ------- null}
r -t 0.552368 -s 0 -d 1 -p tcp -e 1240 -c 1 -i 3 -a 1 -x {0.0 2.0 2 ------- null}
+ -t 0.552368 -s 1 -d 2 -p tcp -e 1240 -c 1 -i 3 -a 1 -x {0.0 2.0 2 ------- null}
- -t 0.556336 -s 1 -d 2 -p tcp -e 1240 -c 1 -i 3 -a 1 -x {0.0 2.0 2 ------- null}
h -t 0.556336 -s 1 -d 2 -p tcp -e 1240 -c 1 -i 3 -a 1 -x {0.0 2.0 -1 ------- null}
r -t 0.566336 -s 1 -d 2 -p tcp -e 1240 -c 1 -i 2 -a 1 -x {0.0 2.0 1 ------- null}
+ -t 0.566336 -s 2 -d 1 -p ack -e 40 -c 1 -i 4 -a 1 -x {2.0 0.0 1 ------- null}
- -t 0.566336 -s 2 -d 1 -p ack -e 40 -c 1 -i 4 -a 1 -x {2.0 0.0 1 ------- null}
h -t 0.566336 -s 2 -d 1 -p ack -e 40 -c 1 -i 4 -a 1 -x {2.0 0.0 -1 ------- null}
r -t 0.571296 -s 1 -d 2 -p tcp -e 1240 -c 1 -i 3 -a 1 -x {0.0 2.0 2 ------- null}
+ -t 0.571296 -s 2 -d 1 -p ack -e 40 -c 1 -i 5 -a 1 -x {2.0 0.0 2 ------- null}
- -t 0.571296 -s 2 -d 1 -p ack -e 40 -c 1 -i 5 -a 1 -x {2.0 0.0 2 ------- null}
h -t 0.571296 -s 2 -d 1 -p ack -e 40 -c 1 -i 5 -a 1 -x {2.0 0.0 -1 ------- null}
r -t 0.576496 -s 2 -d 1 -p ack -e 40 -c 1 -i 4 -a 1 -x {2.0 0.0 1 ------- null}
+ -t 0.576496 -s 1 -d 0 -p ack -e 40 -c 1 -i 4 -a 1 -x {2.0 0.0 1 ------- null}
- -t 0.576496 -s 1 -d 0 -p ack -e 40 -c 1 -i 4 -a 1 -x {2.0 0.0 1 ------- null}
h -t 0.576496 -s 1 -d 0 -p ack -e 40 -c 1 -i 4 -a 1 -x {2.0 0.0 -1 ------- null}
r -t 0.581456 -s 2 -d 1 -p ack -e 40 -c 1 -i 5 -a 1 -x {2.0 0.0 2 ------- null}
+ -t 0.581456 -s 1 -d 0 -p ack -e 40 -c 1 -i 5 -a 1 -x {2.0 0.0 2 ------- null}
- -t 0.581456 -s 1 -d 0 -p ack -e 40 -c 1 -i 5 -a 1 -x {2.0 0.0 2 ------- null}
h -t 0.581456 -s 1 -d 0 -p ack -e 40 -c 1 -i 5 -a 1 -x {2.0 0.0 -1 ------- null}
r -t 0.586528 -s 1 -d 0 -p ack -e 40 -c 1 -i 4 -a 1 -x {2.0 0.0 1 ------- null}
+ -t 0.586528 -s 0 -d 1 -p tcp -e 1240 -c 1 -i 6 -a 1 -x {0.0 2.0 3 ------- null}
- -t 0.586528 -s 0 -d 1 -p tcp -e 1240 -c 1 -i 6 -a 1 -x {0.0 2.0 3 ------- null}
h -t 0.586528 -s 0 -d 1 -p tcp -e 1240 -c 1 -i 6 -a 1 -x {0.0 2.0 -1 ------- null}
+ -t 0.586528 -s 0 -d 1 -p tcp -e 1240 -c 1 -i 7 -a 1 -x {0.0 2.0 4 ------- null}
- -t 0.58752 -s 0 -d 1 -p tcp -e 1240 -c 1 -i 7 -a 1 -x {0.0 2.0 4 ------- null}
h -t 0.58752 -s 0 -d 1 -p tcp -e 1240 -c 1 -i 7 -a 1 -x {0.0 2.0 -1 ------- null}
r -t 0.591488 -s 1 -d 0 -p ack -e 40 -c 1 -i 5 -a 1 -x {2.0 0.0 2 ------- null}
+ -t 0.591488 -s 0 -d 1 -p tcp -e 1240 -c 1 -i 8 -a 1 -x {0.0 2.0 5 ------- null}
- -t 0.591488 -s 0 -d 1 -p tcp -e 1240 -c 1 -i 8 -a 1 -x {0.0 2.0 5 ------- null}
h -t 0.591488 -s 0 -d 1 -p tcp -e 1240 -c 1 -i 8 -a 1 -x {0.0 2.0 -1 ------- null}
+ -t 0.591488 -s 0 -d 1 -p tcp -e 1240 -c 1 -i 9 -a 1 -x {0.0 2.0 6 ------- null}
- -t 0.59248 -s 0 -d 1 -p tcp -e 1240 -c 1 -i 9 -a 1 -x {0.0 2.0 6 ------- null}
h -t 0.59248 -s 0 -d 1 -p tcp -e 1240 -c 1 -i 9 -a 1 -x {0.0 2.0 -1 ------- null}
r -t 0.59752 -s 0 -d 1 -p tcp -e 1240 -c 1 -i 6 -a 1 -x {0.0 2.0 3 ------- null}
+ -t 0.59752 -s 1 -d 2 -p tcp -e 1240 -c 1 -i 6 -a 1 -x {0.0 2.0 3 ------- null}
- -t 0.59752 -s 1 -d 2 -p tcp -e 1240 -c 1 -i 6 -a 1 -x {0.0 2.0 3 ------- null}
h -t 0.59752 -s 1 -d 2 -p tcp -e 1240 -c 1 -i 6 -a 1 -x {0.0 2.0 -1 ------- null}
r -t 0.598512 -s 0 -d 1 -p tcp -e 1240 -c 1 -i 7 -a 1 -x {0.0 2.0 4 ------- null}
+ -t 0.598512 -s 1 -d 2 -p tcp -e 1240 -c 1 -i 7 -a 1 -x {0.0 2.0 4 ------- null}
r -t 0.60248 -s 0 -d 1 -p tcp -e 1240 -c 1 -i 8 -a 1 -x {0.0 2.0 5 ------- null}
+ -t 0.60248 -s 1 -d 2 -p tcp -e 1240 -c 1 -i 8 -a 1 -x {0.0 2.0 5 ------- null}
- -t 0.60248 -s 1 -d 2 -p tcp -e 1240 -c 1 -i 7 -a 1 -x {0.0 2.0 4 ------- null}
h -t 0.60248 -s 1 -d 2 -p tcp -e 1240 -c 1 -i 7 -a 1 -x {0.0 2.0 -1 ------- null}
r -t 0.603472 -s 0 -d 1 -p tcp -e 1240 -c 1 -i 9 -a 1 -x {0.0 2.0 6 ------- null}
+ -t 0.603472 -s 1 -d 2 -p tcp -e 1240 -c 1 -i 9 -a 1 -x {0.0 2.0 6 ------- null}
- -t 0.60744 -s 1 -d 2 -p tcp -e 1240 -c 1 -i 8 -a 1 -x {0.0 2.0 5 ------- null}
h -t 0.60744 -s 1 -d 2 -p tcp -e 1240 -c 1 -i 8 -a 1 -x {0.0 2.0 -1 ------- null}
- -t 0.6124 -s 1 -d 2 -p tcp -e 1240 -c 1 -i 9 -a 1 -x {0.0 2.0 6 ------- null}
h -t 0.6124 -s 1 -d 2 -p tcp -e 1240 -c 1 -i 9 -a 1 -x {0.0 2.0 -1 ------- null}
r -t 0.61248 -s 1 -d 2 -p tcp -e 1240 -c 1 -i 6 -a 1 -x {0.0 2.0 3 ------- null}
+ -t 0.61248 -s 2 -d 1 -p ack -e 40 -c 1 -i 10 -a 1 -x {2.0 0.0 3 ------- null}
- -t 0.61248 -s 2 -d 1 -p ack -e 40 -c 1 -i 10 -a 1 -x {2.0 0.0 3 ------- null}
h -t 0.61248 -s 2 -d 1 -p ack -e 40 -c 1 -i 10 -a 1 -x {2.0 0.0 -1 ------- null}
r -t 0.61744 -s 1 -d 2 -p tcp -e 1240 -c 1 -i 7 -a 1 -x {0.0 2.0 4 ------- null}
+ -t 0.61744 -s 2 -d 1 -p ack -e 40 -c 1 -i 11 -a 1 -x {2.0 0.0 4 ------- null}
- -t 0.61744 -s 2 -d 1 -p ack -e 40 -c 1 -i 11 -a 1 -x {2.0 0.0 4 ------- null}
h -t 0.61744 -s 2 -d 1 -p ack -e 40 -c 1 -i 11 -a 1 -x {2.0 0.0 -1 ------- null}
r -t 0.6224 -s 1 -d 2 -p tcp -e 1240 -c 1 -i 8 -a 1 -x {0.0 2.0 5 ------- null}
+ -t 0.6224 -s 2 -d 1 -p ack -e 40 -c 1 -i 12 -a 1 -x {2.0 0.0 5 ------- null}
- -t 0.6224 -s 2 -d 1 -p ack -e 40 -c 1 -i 12 -a 1 -x {2.0 0.0 5 ------- null}
h -t 0.6224 -s 2 -d 1 -p ack -e 40 -c 1 -i 12 -a 1 -x {2.0 0.0 -1 ------- null}
r -t 0.62264 -s 2 -d 1 -p ack -e 40 -c 1 -i 10 -a 1 -x {2.0 0.0 3 ------- null}
+ -t 0.62264 -s 1 -d 0 -p ack -e 40 -c 1 -i 10 -a 1 -x {2.0 0.0 3 ------- null}
- -t 0.62264 -s 1 -d 0 -p ack -e 40 -c 1 -i 10 -a 1 -x {2.0 0.0 3 ------- null}
h -t 0.62264 -s 1 -d 0 -p ack -e 40 -c 1 -i 10 -a 1 -x {2.0 0.0 -1 ------- null}
r -t 0.62736 -s 1 -d 2 -p tcp -e 1240 -c 1 -i 9 -a 1 -x {0.0 2.0 6 ------- null}
+ -t 0.62736 -s 2 -d 1 -p ack -e 40 -c 1 -i 13 -a 1 -x {2.0 0.0 6 ------- null}
- -t 0.62736 -s 2 -d 1 -p ack -e 40 -c 1 -i 13 -a 1 -x {2.0 0.0 6 ------- null}
h -t 0.62736 -s 2 -d 1 -p ack -e 40 -c 1 -i 13 -a 1 -x {2.0 0.0 -1 ------- null}
r -t 0.6276 -s 2 -d 1 -p ack -e 40 -c 1 -i 11 -a 1 -x {2.0 0.0 4 ------- null}
+ -t 0.6276 -s 1 -d 0 -p ack -e 40 -c 1 -i 11 -a 1 -x {2.0 0.0 4 ------- null}
- -t 0.6276 -s 1 -d 0 -p ack -e 40 -c 1 -i 11 -a 1 -x {2.0 0.0 4 ------- null}
h -t 0.6276 -s 1 -d 0 -p ack -e 40 -c 1 -i 11 -a 1 -x {2.0 0.0 -1 ------- null}
r -t 0.63256 -s 2 -d 1 -p ack -e 40 -c 1 -i 12 -a 1 -x {2.0 0.0 5 ------- null}
+ -t 0.63256 -s 1 -d 0 -p ack -e 40 -c 1 -i 12 -a 1 -x {2.0 0.0 5 ------- null}
- -t 0.63256 -s 1 -d 0 -p ack -e 40 -c 1 -i 12 -a 1 -x {2.0 0.0 5 ------- null}
h -t 0.63256 -s 1 -d 0 -p ack -e 40 -c 1 -i 12 -a 1 -x {2.0 0.0 -1 ------- null}
r -t 0.632672 -s 1 -d 0 -p ack -e 40 -c 1 -i 10 -a 1 -x {2.0 0.0 3 ------- null}
+ -t 0.632672 -s 0 -d 1 -p tcp -e 1240 -c 1 -i 14 -a 1 -x {0.0 2.0 7 ------- null}
- -t 0.632672 -s 0 -d 1 -p tcp -e 1240 -c 1 -i 14 -a 1 -x {0.0 2.0 7 ------- null}
h -t 0.632672 -s 0 -d 1 -p tcp -e 1240 -c 1 -i 14 -a 1 -x {0.0 2.0 -1 ------- null}
+ -t 0.632672 -s 0 -d 1 -p tcp -e 1240 -c 1 -i 15 -a 1 -x {0.0 2.0 8 ------- null}
- -t 0.633664 -s 0 -d 1 -p tcp -e 1240 -c 1 -i 15 -a 1 -x {0.0 2.0 8 ------- null}
h -t 0.633664 -s 0 -d 1 -p tcp -e 1240 -c 1 -i 15 -a 1 -x {0.0 2.0 -1 ------- null}
r -t 0.63752 -s 2 -d 1 -p ack -e 40 -c 1 -i 13 -a 1 -x {2.0 0.0 6 ------- null}
+ -t 0.63752 -s 1 -d 0 -p ack -e 40 -c 1 -i 13 -a 1 -x {2.0 0.0 6 ------- null}
- -t 0.63752 -s 1 -d 0 -p ack -e 40 -c 1 -i 13 -a 1 -x {2.0 0.0 6 ------- null}
h -t 0.63752 -s 1 -d 0 -p ack -e 40 -c 1 -i 13 -a 1 -x {2.0 0.0 -1 ------- null}
r -t 0.637632 -s 1 -d 0 -p ack -e 40 -c 1 -i 11 -a 1 -x {2.0 0.0 4 ------- null}
+ -t 0.637632 -s 0 -d 1 -p tcp -e 1240 -c 1 -i 16 -a 1 -x {0.0 2.0 9 ------- null}
- -t 0.637632 -s 0 -d 1 -p tcp -e 1240 -c 1 -i 16 -a 1 -x {0.0 2.0 9 ------- null}
h -t 0.637632 -s 0 -d 1 -p tcp -e 1240 -c 1 -i 16 -a 1 -x {0.0 2.0 -1 ------- null}
+ -t 0.637632 -s 0 -d 1 -p tcp -e 1240 -c 1 -i 17 -a 1 -x {0.0 2.0 10 ------- null}
- -t 0.638624 -s 0 -d 1 -p tcp -e 1240 -c 1 -i 17 -a 1 -x {0.0 2.0 10 ------- null}
h -t 0.638624 -s 0 -d 1 -p tcp -e 1240 -c 1 -i 17 -a 1 -x {0.0 2.0 -1 ------- null}
r -t 0.642592 -s 1 -d 0 -p ack -e 40 -c 1 -i 12 -a 1 -x {2.0 0.0 5 ------- null}
+ -t 0.642592 -s 0 -d 1 -p tcp -e 1240 -c 1 -i 18 -a 1 -x {0.0 2.0 11 ------- null}
- -t 0.642592 -s 0 -d 1 -p tcp -e 1240 -c 1 -i 18 -a 1 -x {0.0 2.0 11 ------- null}
h -t 0.642592 -s 0 -d 1 -p tcp -e 1240 -c 1 -i 18 -a 1 -x {0.0 2.0 -1 ------- null}
+ -t 0.642592 -s 0 -d 1 -p tcp -e 1240 -c 1 -i 19 -a 1 -x {0.0 2.0 12 ------- null}
- -t 0.643584 -s 0 -d 1 -p tcp -e 1240 -c 1 -i 19 -a 1 -x {0.0 2.0 12 ------- null}
h -t 0.643584 -s 0 -d 1 -p tcp -e 1240 -c 1 -i 19 -a 1 -x {0.0 2.0 -1 ------- null}
r -t 0.643664 -s 0 -d 1 -p tcp -e 1240 -c 1 -i 14 -a 1 -x {0.0 2.0 7 ------- null}
+ -t 0.643664 -s 1 -d 2 -p tcp -e 1240 -c 1 -i 14 -a 1 -x {0.0 2.0 7 ------- null}
- -t 0.643664 -s 1 -d 2 -p tcp -e 1240 -c 1 -i 14 -a 1 -x {0.0 2.0 7 ------- null}
h -t 0.643664 -s 1 -d 2 -p tcp -e 1240 -c 1 -i 14 -a 1 -x {0.0 2.0 -1 ------- null}
r -t 0.644656 -s 0 -d 1 -p tcp -e 1240 -c 1 -i 15 -a 1 -x {0.0 2.0 8 ------- null}
+ -t 0.644656 -s 1 -d 2 -p tcp -e 1240 -c 1 -i 15 -a 1 -x {0.0 2.0 8 ------- null}
r -t 0.647552 -s 1 -d 0 -p ack -e 40 -c 1 -i 13 -a 1 -x {2.0 0.0 6 ------- null}
+ -t 0.647552 -s 0 -d 1 -p tcp -e 1240 -c 1 -i 20 -a 1 -x {0.0 2.0 13 ------- null}
- -t 0.647552 -s 0 -d 1 -p tcp -e 1240 -c 1 -i 20 -a 1 -x {0.0 2.0 13 ------- null}
h -t 0.647552 -s 0 -d 1 -p tcp -e 1240 -c 1 -i 20 -a 1 -x {0.0 2.0 -1 ------- null}
+ -t 0.647552 -s 0 -d 1 -p tcp -e 1240 -c 1 -i 21 -a 1 -x {0.0 2.0 14 ------- null}
- -t 0.648544 -s 0 -d 1 -p tcp -e 1240 -c 1 -i 21 -a 1 -x {0.0 2.0 14 ------- null}
h -t 0.648544 -s 0 -d 1 -p tcp -e 1240 -c 1 -i 21 -a 1 -x {0.0 2.0 -1 ------- null}
r -t 0.648624 -s 0 -d 1 -p tcp -e 1240 -c 1 -i 16 -a 1 -x {0.0 2.0 9 ------- null}
+ -t 0.648624 -s 1 -d 2 -p tcp -e 1240 -c 1 -i 16 -a 1 -x {0.0 2.0 9 ------- null}
- -t 0.648624 -s 1 -d 2 -p tcp -e 1240 -c 1 -i 15 -a 1 -x {0.0 2.0 8 ------- null}
h -t 0.648624 -s 1 -d 2 -p tcp -e 1240 -c 1 -i 15 -a 1 -x {0.0 2.0 -1 ------- null}
r -t 0.649616 -s 0 -d 1 -p tcp -e 1240 -c 1 -i 17 -a 1 -x {0.0 2.0 10 ------- null}
+ -t 0.649616 -s 1 -d 2 -p tcp -e 1240 -c 1 -i 17 -a 1 -x {0.0 2.0 10 ------- null}
r -t 0.653584 -s 0 -d 1 -p tcp -e 1240 -c 1 -i 18 -a 1 -x {0.0 2.0 11 ------- null}
+ -t 0.653584 -s 1 -d 2 -p tcp -e 1240 -c 1 -i 18 -a 1 -x {0.0 2.0 11 ------- null}
- -t 0.653584 -s 1 -d 2 -p tcp -e 1240 -c 1 -i 16 -a 1 -x {0.0 2.0 9 ------- null}
h -t 0.653584 -s 1 -d 2 -p tcp -e 1240 -c 1 -i 16 -a 1 -x {0.0 2.0 -1 ------- null}
r -t 0.654576 -s 0 -d 1 -p tcp -e 1240 -c 1 -i 19 -a 1 -x {0.0 2.0 12 ------- null}
+ -t 0.654576 -s 1 -d 2 -p tcp -e 1240 -c 1 -i 19 -a 1 -x {0.0 2.0 12 ------- null}
r -t 0.658544 -s 0 -d 1 -p tcp -e 1240 -c 1 -i 20 -a 1 -x {0.0 2.0 13 ------- null}
+ -t 0.658544 -s 1 -d 2 -p tcp -e 1240 -c 1 -i 20 -a 1 -x {0.0 2.0 13 ------- null}
- -t 0.658544 -s 1 -d 2 -p tcp -e 1240 -c 1 -i 17 -a 1 -x {0.0 2.0 10 ------- null}
h -t 0.658544 -s 1 -d 2 -p tcp -e 1240 -c 1 -i 17 -a 1 -x {0.0 2.0 -1 ------- null}
r -t 0.658624 -s 1 -d 2 -p tcp -e 1240 -c 1 -i 14 -a 1 -x {0.0 2.0 7 ------- null}
+ -t 0.658624 -s 2 -d 1 -p ack -e 40 -c 1 -i 22 -a 1 -x {2.0 0.0 7 ------- null}
- -t 0.658624 -s 2 -d 1 -p ack -e 40 -c 1 -i 22 -a 1 -x {2.0 0.0 7 ------- null}
h -t 0.658624 -s 2 -d 1 -p ack -e 40 -c 1 -i 22 -a 1 -x {2.0 0.0 -1 ------- null}
r -t 0.659536 -s 0 -d 1 -p tcp -e 1240 -c 1 -i 21 -a 1 -x {0.0 2.0 14 ------- null}
+ -t 0.659536 -s 1 -d 2 -p tcp -e 1240 -c 1 -i 21 -a 1 -x {0.0 2.0 14 ------- null}
- -t 0.663504 -s 1 -d 2 -p tcp -e 1240 -c 1 -i 18 -a 1 -x {0.0 2.0 11 ------- null}
h -t 0.663504 -s 1 -d 2 -p tcp -e 1240 -c 1 -i 18 -a 1 -x {0.0 2.0 -1 ------- null}
r -t 0.663584 -s 1 -d 2 -p tcp -e 1240 -c 1 -i 15 -a 1 -x {0.0 2.0 8 ------- null}
+ -t 0.663584 -s 2 -d 1 -p ack -e 40 -c 1 -i 23 -a 1 -x {2.0 0.0 8 ------- null}
- -t 0.663584 -s 2 -d 1 -p ack -e 40 -c 1 -i 23 -a 1 -x {2.0 0.0 8 ------- null}
h -t 0.663584 -s 2 -d 1 -p ack -e 40 -c 1 -i 23 -a 1 -x {2.0 0.0 -1 ------- null}
- -t 0.668464 -s 1 -d 2 -p tcp -e 1240 -c 1 -i 19 -a 1 -x {0.0 2.0 12 ------- null}
h -t 0.668464 -s 1 -d 2 -p tcp -e 1240 -c 1 -i 19 -a 1 -x {0.0 2.0 -1 ------- null}
r -t 0.668544 -s 1 -d 2 -p tcp -e 1240 -c 1 -i 16 -a 1 -x {0.0 2.0 9 ------- null}
+ -t 0.668544 -s 2 -d 1 -p ack -e 40 -c 1 -i 24 -a 1 -x {2.0 0.0 9 ------- null}
- -t 0.668544 -s 2 -d 1 -p ack -e 40 -c 1 -i 24 -a 1 -x {2.0 0.0 9 ------- null}
h -t 0.668544 -s 2 -d 1 -p ack -e 40 -c 1 -i 24 -a 1 -x {2.0 0.0 -1 ------- null}
r -t 0.668784 -s 2 -d 1 -p ack -e 40 -c 1 -i 22 -a 1 -x {2.0 0.0 7 ------- null}
+ -t 0.668784 -s 1 -d 0 -p ack -e 40 -c 1 -i 22 -a 1 -x {2.0 0.0 7 ------- null}
- -t 0.668784 -s 1 -d 0 -p ack -e 40 -c 1 -i 22 -a 1 -x {2.0 0.0 7 ------- null}
h -t 0.668784 -s 1 -d 0 -p ack -e 40 -c 1 -i 22 -a 1 -x {2.0 0.0 -1 ------- null}
- -t 0.673424 -s 1 -d 2 -p tcp -e 1240 -c 1 -i 20 -a 1 -x {0.0 2.0 13 ------- null}
h -t 0.673424 -s 1 -d 2 -p tcp -e 1240 -c 1 -i 20 -a 1 -x {0.0 2.0 -1 ------- null}
r -t 0.673504 -s 1 -d 2 -p tcp -e 1240 -c 1 -i 17 -a 1 -x {0.0 2.0 10 ------- null}
+ -t 0.673504 -s 2 -d 1 -p ack -e 40 -c 1 -i 25 -a 1 -x {2.0 0.0 10 ------- null}
- -t 0.673504 -s 2 -d 1 -p ack -e 40 -c 1 -i 25 -a 1 -x {2.0 0.0 10 ------- null}
h -t 0.673504 -s 2 -d 1 -p ack -e 40 -c 1 -i 25 -a 1 -x {2.0 0.0 -1 ------- null}
r -t 0.673744 -s 2 -d 1 -p ack -e 40 -c 1 -i 23 -a 1 -x {2.0 0.0 8 ------- null}
+ -t 0.673744 -s 1 -d 0 -p ack -e 40 -c 1 -i 23 -a 1 -x {2.0 0.0 8 ------- null}
- -t 0.673744 -s 1 -d 0 -p ack -e 40 -c 1 -i 23 -a 1 -x {2.0 0.0 8 ------- null}
h -t 0.673744 -s 1 -d 0 -p ack -e 40 -c 1 -i 23 -a 1 -x {2.0 0.0 -1 ------- null}
- -t 0.678384 -s 1 -d 2 -p tcp -e 1240 -c 1 -i 21 -a 1 -x {0.0 2.0 14 ------- null}
h -t 0.678384 -s 1 -d 2 -p tcp -e 1240 -c 1 -i 21 -a 1 -x {0.0 2.0 -1 ------- null}
r -t 0.678464 -s 1 -d 2 -p tcp -e 1240 -c 1 -i 18 -a 1 -x {0.0 2.0 11 ------- null}
+ -t 0.678464 -s 2 -d 1 -p ack -e 40 -c 1 -i 26 -a 1 -x {2.0 0.0 11 ------- null}
- -t 0.678464 -s 2 -d 1 -p ack -e 40 -c 1 -i 26 -a 1 -x {2.0 0.0 11 ------- null}
h -t 0.678464 -s 2 -d 1 -p ack -e 40 -c 1 -i 26 -a 1 -x {2.0 0.0 -1 ------- null}
r -t 0.678704 -s 2 -d 1 -p ack -e 40 -c 1 -i 24 -a 1 -x {2.0 0.0 9 ------- null}
+ -t 0.678704 -s 1 -d 0 -p ack -e 40 -c 1 -i 24 -a 1 -x {2.0 0.0 9 ------- null}
- -t 0.678704 -s 1 -d 0 -p ack -e 40 -c 1 -i 24 -a 1 -x {2.0 0.0 9 ------- null}
h -t 0.678704 -s 1 -d 0 -p ack -e 40 -c 1 -i 24 -a 1 -x {2.0 0.0 -1 ------- null}
r -t 0.678816 -s 1 -d 0 -p ack -e 40 -c 1 -i 22 -a 1 -x {2.0 0.0 7 ------- null}
+ -t 0.678816 -s 0 -d 1 -p tcp -e 1240 -c 1 -i 27 -a 1 -x {0.0 2.0 15 ------- null}
- -t 0.678816 -s 0 -d 1 -p tcp -e 1240 -c 1 -i 27 -a 1 -x {0.0 2.0 15 ------- null}
h -t 0.678816 -s 0 -d 1 -p tcp -e 1240 -c 1 -i 27 -a 1 -x {0.0 2.0 -1 ------- null}
+ -t 0.678816 -s 0 -d 1 -p tcp -e 1240 -c 1 -i 28 -a 1 -x {0.0 2.0 16 ------- null}
- -t 0.679808 -s 0 -d 1 -p tcp -e 1240 -c 1 -i 28 -a 1 -x {0.0 2.0 16 ------- null}
h -t 0.679808 -s 0 -d 1 -p tcp -e 1240 -c 1 -i 28 -a 1 -x {0.0 2.0 -1 ------- null}
r -t 0.683424 -s 1 -d 2 -p tcp -e 1240 -c 1 -i 19 -a 1 -x {0.0 2.0 12 ------- null}
+ -t 0.683424 -s 2 -d 1 -p ack -e 40 -c 1 -i 29 -a 1 -x {2.0 0.0 12 ------- null}
- -t 0.683424 -s 2 -d 1 -p ack -e 40 -c 1 -i 29 -a 1 -x {2.0 0.0 12 ------- null}
h -t 0.683424 -s 2 -d 1 -p ack -e 40 -c 1 -i 29 -a 1 -x {2.0 0.0 -1 ------- null}
r -t 0.683664 -s 2 -d 1 -p ack -e 40 -c 1 -i 25 -a 1 -x {2.0 0.0 10 ------- null}
+ -t 0.683664 -s 1 -d 0 -p ack -e 40 -c 1 -i 25 -a 1 -x {2.0 0.0 10 ------- null}
- -t 0.683664 -s 1 -d 0 -p ack -e 40 -c 1 -i 25 -a 1 -x {2.0 0.0 10 ------- null}
h -t 0.683664 -s 1 -d 0 -p ack -e 40 -c 1 -i 25 -a 1 -x {2.0 0.0 -1 ------- null}
r -t 0.683776 -s 1 -d 0 -p ack -e 40 -c 1 -i 23 -a 1 -x {2.0 0.0 8 ------- null}
+ -t 0.683776 -s 0 -d 1 -p tcp -e 1240 -c 1 -i 30 -a 1 -x {0.0 2.0 17 ------- null}
- -t 0.683776 -s 0 -d 1 -p tcp -e 1240 -c 1 -i 30 -a 1 -x {0.0 2.0 17 ------- null}
h -t 0.683776 -s 0 -d 1 -p tcp -e 1240 -c 1 -i 30 -a 1 -x {0.0 2.0 -1 ------- null}
+ -t 0.683776 -s 0 -d 1 -p tcp -e 1240 -c 1 -i 31 -a 1 -x {0.0 2.0 18 ------- null}
- -t 0.684768 -s 0 -d 1 -p tcp -e 1240 -c 1 -i 31 -a 1 -x {0.0 2.0 18 ------- null}
h -t 0.684768 -s 0 -d 1 -p tcp -e 1240 -c 1 -i 31 -a 1 -x {0.0 2.0 -1 ------- null}
r -t 0.688384 -s 1 -d 2 -p tcp -e 1240 -c 1 -i 20 -a 1 -x {0.0 2.0 13 ------- null}
+ -t 0.688384 -s 2 -d 1 -p ack -e 40 -c 1 -i 32 -a 1 -x {2.0 0.0 13 ------- null}
- -t 0.688384 -s 2 -d 1 -p ack -e 40 -c 1 -i 32 -a 1 -x {2.0 0.0 13 ------- null}
h -t 0.688384 -s 2 -d 1 -p ack -e 40 -c 1 -i 32 -a 1 -x {2.0 0.0 -1 ------- null}
r -t 0.688624 -s 2 -d 1 -p ack -e 40 -c 1 -i 26 -a 1 -x {2.0 0.0 11 ------- null}
+ -t 0.688624 -s 1 -d 0 -p ack -e 40 -c 1 -i 26 -a 1 -x {2.0 0.0 11 ------- null}
- -t 0.688624 -s 1 -d 0 -p ack -e 40 -c 1 -i 26 -a 1 -x {2.0 0.0 11 ------- null}
h -t 0.688624 -s 1 -d 0 -p ack -e 40 -c 1 -i 26 -a 1 -x {2.0 0.0 -1 ------- null}
r -t 0.688736 -s 1 -d 0 -p ack -e 40 -c 1 -i 24 -a 1 -x {2.0 0.0 9 ------- null}
+ -t 0.688736 -s 0 -d 1 -p tcp -e 1240 -c 1 -i 33 -a 1 -x {0.0 2.0 19 ------- null}
- -t 0.688736 -s 0 -d 1 -p tcp -e 1240 -c 1 -i 33 -a 1 -x {0.0 2.0 19 ------- null}
h -t 0.688736 -s 0 -d 1 -p tcp -e 1240 -c 1 -i 33 -a 1 -x {0.0 2.0 -1 ------- null}
+ -t 0.688736 -s 0 -d 1 -p tcp -e 1240 -c 1 -i 34 -a 1 -x {0.0 2.0 20 ------- null}
- -t 0.689728 -s 0 -d 1 -p tcp -e 1240 -c 1 -i 34 -a 1 -x {0.0 2.0 20 ------- null}
h -t 0.689728 -s 0 -d 1 -p tcp -e 1240 -c 1 -i 34 -a 1 -x {0.0 2.0 -1 ------- null}
r -t 0.689808 -s 0 -d 1 -p tcp -e 1240 -c 1 -i 27 -a 1 -x {0.0 2.0 15 ------- null}
+ -t 0.689808 -s 1 -d 2 -p tcp -e 1240 -c 1 -i 27 -a 1 -x {0.0 2.0 15 ------- null}
- -t 0.689808 -s 1 -d 2 -p tcp -e 1240 -c 1 -i 27 -a 1 -x {0.0 2.0 15 ------- null}
h -t 0.689808 -s 1 -d 2 -p tcp -e 1240 -c 1 -i 27 -a 1 -x {0.0 2.0 -1 ------- null}
r -t 0.6908 -s 0 -d 1 -p tcp -e 1240 -c 1 -i 28 -a 1 -x {0.0 2.0 16 ------- null}
+ -t 0.6908 -s 1 -d 2 -p tcp -e 1240 -c 1 -i 28 -a 1 -x {0.0 2.0 16 ------- null}
r -t 0.693344 -s 1 -d 2 -p tcp -e 1240 -c 1 -i 21 -a 1 -x {0.0 2.0 14 ------- null}
+ -t 0.693344 -s 2 -d 1 -p ack -e 40 -c 1 -i 35 -a 1 -x {2.0 0.0 14 ------- null}
- -t 0.693344 -s 2 -d 1 -p ack -e 40 -c 1 -i 35 -a 1 -x {2.0 0.0 14 ------- null}
h -t 0.693344 -s 2 -d 1 -p ack -e 40 -c 1 -i 35 -a 1 -x {2.0 0.0 -1 ------- null}
r -t 0.693584 -s 2 -d 1 -p ack -e 40 -c 1 -i 29 -a 1 -x {2.0 0.0 12 ------- null}
+ -t 0.693584 -s 1 -d 0 -p ack -e 40 -c 1 -i 29 -a 1 -x {2.0 0.0 12 ------- null}
- -t 0.693584 -s 1 -d 0 -p ack -e 40 -c 1 -i 29 -a 1 -x {2.0 0.0 12 ------- null}
h -t 0.693584 -s 1 -d 0 -p ack -e 40 -c 1 -i 29 -a 1 -x {2.0 0.0 -1 ------- null}
r -t 0.693696 -s 1 -d 0 -p ack -e 40 -c 1 -i 25 -a 1 -x {2.0 0.0 10 ------- null}
+ -t 0.693696 -s 0 -d 1 -p tcp -e 1240 -c 1 -i 36 -a 1 -x {0.0 2.0 21 ------- null}
- -t 0.693696 -s 0 -d 1 -p tcp -e 1240 -c 1 -i 36 -a 1 -x {0.0 2.0 21 ------- null}
h -t 0.693696 -s 0 -d 1 -p tcp -e 1240 -c 1 -i 36 -a 1 -x {0.0 2.0 -1 ------- null}
+ -t 0.693696 -s 0 -d 1 -p tcp -e 1240 -c 1 -i 37 -a 1 -x {0.0 2.0 22 ------- null}
- -t 0.694688 -s 0 -d 1 -p tcp -e 1240 -c 1 -i 37 -a 1 -x {0.0 2.0 22 ------- null}
h -t 0.694688 -s 0 -d 1 -p tcp -e 1240 -c 1 -i 37 -a 1 -x {0.0 2.0 -1 ------- null}
r -t 0.694768 -s 0 -d 1 -p tcp -e 1240 -c 1 -i 30 -a 1 -x {0.0 2.0 17 ------- null}
+ -t 0.694768 -s 1 -d 2 -p tcp -e 1240 -c 1 -i 30 -a 1 -x {0.0 2.0 17 ------- null}
- -t 0.694768 -s 1 -d 2 -p tcp -e 1240 -c 1 -i 28 -a 1 -x {0.0 2.0 16 ------- null}
h -t 0.694768 -s 1 -d 2 -p tcp -e 1240 -c 1 -i 28 -a 1 -x {0.0 2.0 -1 ------- null}
r -t 0.69576 -s 0 -d 1 -p tcp -e 1240 -c 1 -i 31 -a 1 -x {0.0 2.0 18 ------- null}
+ -t 0.69576 -s 1 -d 2 -p tcp -e 1240 -c 1 -i 31 -a 1 -x {0.0 2.0 18 ------- null}
r -t 0.698544 -s 2 -d 1 -p ack -e 40 -c 1 -i 32 -a 1 -x {2.0 0.0 13 ------- null}
+ -t 0.698544 -s 1 -d 0 -p ack -e 40 -c 1 -i 32 -a 1 -x {2.0 0.0 13 ------- null}
- -t 0.698544 -s 1 -d 0 -p ack -e 40 -c 1 -i 32 -a 1 -x {2.0 0.0 13 ------- null}
h -t 0.698544 -s 1 -d 0 -p ack -e 40 -c 1 -i 32 -a 1 -x {2.0 0.0 -1 ------- null}
r -t 0.698656 -s 1 -d 0 -p ack -e 40 -c 1 -i 26 -a 1 -x {2.0 0.0 11 ------- null}
+ -t 0.698656 -s 0 -d 1 -p tcp -e 1240 -c 1 -i 38 -a 1 -x {0.0 2.0 23 ------- null}
- -t 0.698656 -s 0 -d 1 -p tcp -e 1240 -c 1 -i 38 -a 1 -x {0.0 2.0 23 ------- null}
h -t 0.698656 -s 0 -d 1 -p tcp -e 1240 -c 1 -i 38 -a 1 -x {0.0 2.0 -1 ------- null}
+ -t 0.698656 -s 0 -d 1 -p tcp -e 1240 -c 1 -i 39 -a 1 -x {0.0 2.0 24 ------- null}
- -t 0.699648 -s 0 -d 1 -p tcp -e 1240 -c 1 -i 39 -a 1 -x {0.0 2.0 24 ------- null}
h -t 0.699648 -s 0 -d 1 -p tcp -e 1240 -c 1 -i 39 -a 1 -x {0.0 2.0 -1 ------- null}
r -t 0.699728 -s 0 -d 1 -p tcp -e 1240 -c 1 -i 33 -a 1 -x {0.0 2.0 19 ------- null}
+ -t 0.699728 -s 1 -d 2 -p tcp -e 1240 -c 1 -i 33 -a 1 -x {0.0 2.0 19 ------- null}
- -t 0.699728 -s 1 -d 2 -p tcp -e 1240 -c 1 -i 30 -a 1 -x {0.0 2.0 17 ------- null}
h -t 0.699728 -s 1 -d 2 -p tcp -e 1240 -c 1 -i 30 -a 1 -x {0.0 2.0 -1 ------- null}
r -t 0.70072 -s 0 -d 1 -p tcp -e 1240 -c 1 -i 34 -a 1 -x {0.0 2.0 20 ------- null}
+ -t 0.70072 -s 1 -d 2 -p tcp -e 1240 -c 1 -i 34 -a 1 -x {0.0 2.0 20 ------- null}
r -t 0.703504 -s 2 -d 1 -p ack -e 40 -c 1 -i 35 -a 1 -x {2.0 0.0 14 ------- null}
+ -t 0.703504 -s 1 -d 0 -p ack -e 40 -c 1 -i 35 -a 1 -x {2.0 0.0 14 ------- null}
- -t 0.703504 -s 1 -d 0 -p ack -e 40 -c 1 -i 35 -a 1 -x {2.0 0.0 14 ------- null}
h -t 0.703504 -s 1 -d 0 -p ack -e 40 -c 1 -i 35 -a 1 -x {2.0 0.0 -1 ------- null}
r -t 0.703616 -s 1 -d 0 -p ack -e 40 -c 1 -i 29 -a 1 -x {2.0 0.0 12 ------- null}
+ -t 0.703616 -s 0 -d 1 -p tcp -e 1240 -c 1 -i 40 -a 1 -x {0.0 2.0 25 ------- null}
- -t 0.703616 -s 0 -d 1 -p tcp -e 1240 -c 1 -i 40 -a 1 -x {0.0 2.0 25 ------- null}
h -t 0.703616 -s 0 -d 1 -p tcp -e 1240 -c 1 -i 40 -a 1 -x {0.0 2.0 -1 ------- null}
+ -t 0.703616 -s 0 -d 1 -p tcp -e 1240 -c 1 -i 41 -a 1 -x {0.0 2.0 26 ------- null}
- -t 0.704608 -s 0 -d 1 -p tcp -e 1240 -c 1 -i 41 -a 1 -x {0.0 2.0 26 ------- null}
h -t 0.704608 -s 0 -d 1 -p tcp -e 1240 -c 1 -i 41 -a 1 -x {0.0 2.0 -1 ------- null}
r -t 0.704688 -s 0 -d 1 -p tcp -e 1240 -c 1 -i 36 -a 1 -x {0.0 2.0 21 ------- null}
+ -t 0.704688 -s 1 -d 2 -p tcp -e 1240 -c 1 -i 36 -a 1 -x {0.0 2.0 21 ------- null}
- -t 0.704688 -s 1 -d 2 -p tcp -e 1240 -c 1 -i 31 -a 1 -x {0.0 2.0 18 ------- null}
h -t 0.704688 -s 1 -d 2 -p tcp -e 1240 -c 1 -i 31 -a 1 -x {0.0 2.0 -1 ------- null}
r -t 0.704768 -s 1 -d 2 -p tcp -e 1240 -c 1 -i 27 -a 1 -x {0.0 2.0 15 ------- null}
+ -t 0.704768 -s 2 -d 1 -p ack -e 40 -c 1 -i 42 -a 1 -x {2.0 0.0 15 ------- null}
- -t 0.704768 -s 2 -d 1 -p ack -e 40 -c 1 -i 42 -a 1 -x {2.0 0.0 15 ------- null}
h -t 0.704768 -s 2 -d 1 -p ack -e 40 -c 1 -i 42 -a 1 -x {2.0 0.0 -1 ------- null}
r -t 0.70568 -s 0 -d 1 -p tcp -e 1240 -c 1 -i 37 -a 1 -x {0.0 2.0 22 ------- null}
+ -t 0.70568 -s 1 -d 2 -p tcp -e 1240 -c 1 -i 37 -a 1 -x {0.0 2.0 22 ------- null}
r -t 0.708576 -s 1 -d 0 -p ack -e 40 -c 1 -i 32 -a 1 -x {2.0 0.0 13 ------- null}
+ -t 0.708576 -s 0 -d 1 -p tcp -e 1240 -c 1 -i 43 -a 1 -x {0.0 2.0 27 ------- null}
- -t 0.708576 -s 0 -d 1 -p tcp -e 1240 -c 1 -i 43 -a 1 -x {0.0 2.0 27 ------- null}
h -t 0.708576 -s 0 -d 1 -p tcp -e 1240 -c 1 -i 43 -a 1 -x {0.0 2.0 -1 ------- null}
+ -t 0.708576 -s 0 -d 1 -p tcp -e 1240 -c 1 -i 44 -a 1 -x {0.0 2.0 28 ------- null}
- -t 0.709568 -s 0 -d 1 -p tcp -e 1240 -c 1 -i 44 -a 1 -x {0.0 2.0 28 ------- null}
h -t 0.709568 -s 0 -d 1 -p tcp -e 1240 -c 1 -i 44 -a 1 -x {0.0 2.0 -1 ------- null}
r -t 0.709648 -s 0 -d 1 -p tcp -e 1240 -c 1 -i 38 -a 1 -x {0.0 2.0 23 ------- null}
+ -t 0.709648 -s 1 -d 2 -p tcp -e 1240 -c 1 -i 38 -a 1 -x {0.0 2.0 23 ------- null}
d -t 0.709648 -s 1 -d 2 -p tcp -e 1240 -c 1 -i 38 -a 1 -x {0.0 2.0 23 ------- null}
- -t 0.709648 -s 1 -d 2 -p tcp -e 1240 -c 1 -i 33 -a 1 -x {0.0 2.0 19 ------- null}
h -t 0.709648 -s 1 -d 2 -p tcp -e 1240 -c 1 -i 33 -a 1 -x {0.0 2.0 -1 ------- null}
r -t 0.709728 -s 1 -d 2 -p tcp -e 1240 -c 1 -i 28 -a 1 -x {0.0 2.0 16 ------- null}
+ -t 0.709728 -s 2 -d 1 -p ack -e 40 -c 1 -i 45 -a 1 -x {2.0 0.0 16 ------- null}
- -t 0.709728 -s 2 -d 1 -p ack -e 40 -c 1 -i 45 -a 1 -x {2.0 0.0 16 ------- null}
h -t 0.709728 -s 2 -d 1 -p ack -e 40 -c 1 -i 45 -a 1 -x {2.0 0.0 -1 ------- null}
r -t 0.71064 -s 0 -d 1 -p tcp -e 1240 -c 1 -i 39 -a 1 -x {0.0 2.0 24 ------- null}
+ -t 0.71064 -s 1 -d 2 -p tcp -e 1240 -c 1 -i 39 -a 1 -x {0.0 2.0 24 ------- null}
r -t 0.713536 -s 1 -d 0 -p ack -e 40 -c 1 -i 35 -a 1 -x {2.0 0.0 14 ------- null}
+ -t 0.713536 -s 0 -d 1 -p tcp -e 1240 -c 1 -i 46 -a 1 -x {0.0 2.0 29 ------- null}
- -t 0.713536 -s 0 -d 1 -p tcp -e 1240 -c 1 -i 46 -a 1 -x {0.0 2.0 29 ------- null}
h -t 0.713536 -s 0 -d 1 -p tcp -e 1240 -c 1 -i 46 -a 1 -x {0.0 2.0 -1 ------- null}
+ -t 0.713536 -s 0 -d 1 -p tcp -e 1240 -c 1 -i 47 -a 1 -x {0.0 2.0 30 ------- null}
- -t 0.714528 -s 0 -d 1 -p tcp -e 1240 -c 1 -i 47 -a 1 -x {0.0 2.0 30 ------- null}
h -t 0.714528 -s 0 -d 1 -p tcp -e 1240 -c 1 -i 47 -a 1 -x {0.0 2.0 -1 ------- null}
r -t 0.714608 -s 0 -d 1 -p tcp -e 1240 -c 1 -i 40 -a 1 -x {0.0 2.0 25 ------- null}
+ -t 0.714608 -s 1 -d 2 -p tcp -e 1240 -c 1 -i 40 -a 1 -x {0.0 2.0 25 ------- null}
d -t 0.714608 -s 1 -d 2 -p tcp -e 1240 -c 1 -i 40 -a 1 -x {0.0 2.0 25 ------- null}
- -t 0.714608 -s 1 -d 2 -p tcp -e 1240 -c 1 -i 34 -a 1 -x {0.0 2.0 20 ------- null}
h -t 0.714608 -s 1 -d 2 -p tcp -e 1240 -c 1 -i 34 -a 1 -x {0.0 2.0 -1 ------- null}
r -t 0.714688 -s 1 -d 2 -p tcp -e 1240 -c 1 -i 30 -a 1 -x {0.0 2.0 17 ------- null}
+ -t 0.714688 -s 2 -d 1 -p ack -e 40 -c 1 -i 48 -a 1 -x {2.0 0.0 17 ------- null}
- -t 0.714688 -s 2 -d 1 -p ack -e 40 -c 1 -i 48 -a 1 -x {2.0 0.0 17 ------- null}
h -t 0.714688 -s 2 -d 1 -p ack -e 40 -c 1 -i 48 -a 1 -x {2.0 0.0 -1 ------- null}
r -t 0.714928 -s 2 -d 1 -p ack -e 40 -c 1 -i 42 -a 1 -x {2.0 0.0 15 ------- null}
+ -t 0.714928 -s 1 -d 0 -p ack -e 40 -c 1 -i 42 -a 1 -x {2.0 0.0 15 ------- null}
- -t 0.714928 -s 1 -d 0 -p ack -e 40 -c 1 -i 42 -a 1 -x {2.0 0.0 15 ------- null}
h -t 0.714928 -s 1 -d 0 -p ack -e 40 -c 1 -i 42 -a 1 -x {2.0 0.0 -1 ------- null}
r -t 0.7156 -s 0 -d 1 -p tcp -e 1240 -c 1 -i 41 -a 1 -x {0.0 2.0 26 ------- null}
+ -t 0.7156 -s 1 -d 2 -p tcp -e 1240 -c 1 -i 41 -a 1 -x {0.0 2.0 26 ------- null}
r -t 0.719568 -s 0 -d 1 -p tcp -e 1240 -c 1 -i 43 -a 1 -x {0.0 2.0 27 ------- null}
+ -t 0.719568 -s 1 -d 2 -p tcp -e 1240 -c 1 -i 43 -a 1 -x {0.0 2.0 27 ------- null}
d -t 0.719568 -s 1 -d 2 -p tcp -e 1240 -c 1 -i 43 -a 1 -x {0.0 2.0 27 ------- null}
- -t 0.719568 -s 1 -d 2 -p tcp -e 1240 -c 1 -i 36 -a 1 -x {0.0 2.0 21 ------- null}
h -t 0.719568 -s 1 -d 2 -p tcp -e 1240 -c 1 -i 36 -a 1 -x {0.0 2.0 -1 ------- null}
r -t 0.719648 -s 1 -d 2 -p tcp -e 1240 -c 1 -i 31 -a 1 -x {0.0 2.0 18 ------- null}
+ -t 0.719648 -s 2 -d 1 -p ack -e 40 -c 1 -i 49 -a 1 -x {2.0 0.0 18 ------- null}
- -t 0.719648 -s 2 -d 1 -p ack -e 40 -c 1 -i 49 -a 1 -x {2.0 0.0 18 ------- null}
h -t 0.719648 -s 2 -d 1 -p ack -e 40 -c 1 -i 49 -a 1 -x {2.0 0.0 -1 ------- null}
r -t 0.719888 -s 2 -d 1 -p ack -e 40 -c 1 -i 45 -a 1 -x {2.0 0.0 16 ------- null}
+ -t 0.719888 -s 1 -d 0 -p ack -e 40 -c 1 -i 45 -a 1 -x {2.0 0.0 16 ------- null}
- -t 0.719888 -s 1 -d 0 -p ack -e 40 -c 1 -i 45 -a 1 -x {2.0 0.0 16 ------- null}
h -t 0.719888 -s 1 -d 0 -p ack -e 40 -c 1 -i 45 -a 1 -x {2.0 0.0 -1 ------- null}
r -t 0.72056 -s 0 -d 1 -p tcp -e 1240 -c 1 -i 44 -a 1 -x {0.0 2.0 28 ------- null}
+ -t 0.72056 -s 1 -d 2 -p tcp -e 1240 -c 1 -i 44 -a 1 -x {0.0 2.0 28 ------- null}
r -t 0.724528 -s 0 -d 1 -p tcp -e 1240 -c 1 -i 46 -a 1 -x {0.0 2.0 29 ------- null}