V -t * -v 1.0a5 -a 0
A -t * -n 1 -p 0 -o 0x7fffffff -c 30 -a 1
A -t * -h 1 -m 1073741823 -s 0
c -t * -i 1 -n Blue
c -t * -i 2 -n Red
n -t * -a 4 -s 4 -S UP -v circle -c black -i black
n -t * -a 0 -s 0 -S UP -v circle -c black -i black
n -t * -a 5 -s 5 -S UP -v circle -c black -i black
n -t * -a 1 -s 1 -S UP -v circle -c black -i black
n -t * -a 2 -s 2 -S UP -v circle -c black -i black
n -t * -a 3 -s 3 -S UP -v circle -c black -i black
l -t * -s 0 -d 2 -S UP -r 2000000 -D 0.01 -c black -o right-down
l -t * -s 1 -d 2 -S UP -r 2000000 -D 0.01 -c black -o right-up
l -t * -s 2 -d 3 -S UP -r 300000 -D 0.10000000000000001 -c black -o right
l -t * -s 3 -d 4 -S UP -r 500000 -D 0.040000000000000001 -c black -o right-down
l -t * -s 3 -d 5 -S UP -r 500000 -D 0.040000000000000001 -c black -o right-up
q -t * -s 3 -d 2 -a 0.5
q -t * -s 2 -d 3 -a 0.5
+ -t 0.5 -s 1 -d 2 -p cbr -e 400 -c 2 -i 0 -a 2 -x {1.0 5.0 0 ------- null}
- -t 0.5 -s 1 -d 2 -p cbr -e 400 -c 2 -i 0 -a 2 -x {1.0 5.0 0 ------- null}
h -t 0.5 -s 1 -d 2 -p cbr -e 400 -c 2 -i 0 -a 2 -x {1.0 5.0 -1 ------- null}
r -t 0.5116 -s 1 -d 2 -p cbr -e 400 -c 2 -i 0 -a 2 -x {1.0 5.0 0 ------- null}
+ -t 0.5116 -s 2 -d 3 -p cbr -e 400 -c 2 -i 0 -a 2 -x {1.0 5.0 0 ------- null}
- -t 0.5116 -s 2 -d 3 -p cbr -e 400 -c 2 -i 0 -a 2 -x {1.0 5.0 0 ------- null}
h -t 0.5116 -s 2 -d 3 -p cbr -e 400 -c 2 -i 0 -a 2 -x {1.0 5.0 -1 ------- null}
+ -t 0.516 -s 1 -d 2 -p cbr -e 400 -c 2 -i 1 -a 2 -x {1.0 5.0 1 ------- null}
- -t 0.516 -s 1 -d 2 -p cbr -e 400 -c 2 -i 1 -a 2 -x {1.0 5.0 1 ------- null}
h -t 0.516 -s 1 -d 2 -p cbr -e 400 -c 2 -i 1 -a 2 -x {1.0 5.0 -1 ------- null}
r -t 0.5276 -s 1 -d 2 -p cbr -e 400 -c 2 -i 1 -a 2 -x {1.0 5.0 1 ------- null}
+ -t 0.5276 -s 2 -d 3 -p cbr -e 400 -c 2 -i 1 -a 2 -x {1.0 5.0 1 ------- null}
- -t 0.5276 -s 2 -d 3 -p cbr -e 400 -c 2 -i 1 -a 2 -x {1.0 5.0 1 ------- null}
h -t 0.5276 -s 2 -d 3 -p cbr -e 400 -c 2 -i 1 -a 2 -x {1.0 5.0 -1 ------- null}
+ -t 0.532 -s 1 -d 2 -p cbr -e 400 -c 2 -i 2 -a 2 -x {1.0 5.0 2 ------- null}
- -t 0.532 -s 1 -d 2 -p cbr -e 400 -c 2 -i 2 -a 2 -x {1.0 5.0 2 ------- null}
h -t 0.532 -s 1 -d 2 -p cbr -e 400 -c 2 -i 2 -a 2 -x {1.0 5.0 -1 ------- null}
r -t 0.5436 -s 1 -d 2 -p cbr -e 400 -c 2 -i 2 -a 2 -x {1.0 5.0 2 ------- null}
+ -t 0.5436 -s 2 -d 3 -p cbr -e 400 -c 2 -i 2 -a 2 -x {1.0 5.0 2 ------- null}
- -t 0.5436 -s 2 -d 3 -p cbr -e 400 -c 2 -i 2 -a 2 -x {1.0 5.0 2 ------- null}
h -t 0.5436 -s 2 -d 3 -p cbr -e 400 -c 2 -i 2 -a 2 -x {1.0 5.0 -1 ------- null}
+ -t 0.548 -s 1 -d 2 -p cbr -e 400 -c 2 -i 3 -a 2 -x {1.0 5.0 3 ------- null}
- -t 0.548 -s 1 -d 2 -p cbr -e 400 -c 2 -i 3 -a 2 -x {1.0 5.0 3 ------- null}
h -t 0.548 -s 1 -d 2 -p cbr -e 400 -c 2 -i 3 -a 2 -x {1.0 5.0 -1 ------- null}
r -t 0.5596 -s 1 -d 2 -p cbr -e 400 -c 2 -i 3 -a 2 -x {1.0 5.0 3 ------- null}
+ -t 0.5596 -s 2 -d 3 -p cbr -e 400 -c 2 -i 3 -a 2 -x {1.0 5.0 3 ------- null}
- -t 0.5596 -s 2 -d 3 -p cbr -e 400 -c 2 -i 3 -a 2 -x {1.0 5.0 3 ------- null}
h -t 0.5596 -s 2 -d 3 -p cbr -e 400 -c 2 -i 3 -a 2 -x {1.0 5.0 -1 ------- null}
+ -t 0.564 -s 1 -d 2 -p cbr -e 400 -c 2 -i 4 -a 2 -x {1.0 5.0 4 ------- null}
- -t 0.564 -s 1 -d 2 -p cbr -e 400 -c 2 -i 4 -a 2 -x {1.0 5.0 4 ------- null}
h -t 0.564 -s 1 -d 2 -p cbr -e 400 -c 2 -i 4 -a 2 -x {1.0 5.0 -1 ------- null}
r -t 0.5756 -s 1 -d 2 -p cbr -e 400 -c 2 -i 4 -a 2 -x {1.0 5.0 4 ------- null}
+ -t 0.5756 -s 2 -d 3 -p cbr -e 400 -c 2 -i 4 -a 2 -x {1.0 5.0 4 ------- null}
- -t 0.5756 -s 2 -d 3 -p cbr -e 400 -c 2 -i 4 -a 2 -x {1.0 5.0 4 ------- null}
h -t 0.5756 -s 2 -d 3 -p cbr -e 400 -c 2 -i 4 -a 2 -x {1.0 5.0 -1 ------- null}
+ -t 0.58 -s 1 -d 2 -p cbr -e 400 -c 2 -i 5 -a 2 -x {1.0 5.0 5 ------- null}
- -t 0.58 -s 1 -d 2 -p cbr -e 400 -c 2 -i 5 -a 2 -x {1.0 5.0 5 ------- null}
h -t 0.58 -s 1 -d 2 -p cbr -e 400 -c 2 -i 5 -a 2 -x {1.0 5.0 -1 ------- null}
r -t 0.5916 -s 1 -d 2 -p cbr -e 400 -c 2 -i 5 -a 2 -x {1.0 5.0 5 ------- null}
+ -t 0.5916 -s 2 -d 3 -p cbr -e 400 -c 2 -i 5 -a 2 -x {1.0 5.0 5 ------- null}
- -t 0.5916 -s 2 -d 3 -p cbr -e 400 -c 2 -i 5 -a 2 -x {1.0 5.0 5 ------- null}
h -t 0.5916 -s 2 -d 3 -p cbr -e 400 -c 2 -i 5 -a 2 -x {1.0 5.0 -1 ------- null}
+ -t 0.596 -s 1 -d 2 -p cbr -e 400 -c 2 -i 6 -a 2 -x {1.0 5.0 6 ------- null}
- -t 0.596 -s 1 -d 2 -p cbr -e 400 -c 2 -i 6 -a 2 -x {1.0 5.0 6 ------- null}
h -t 0.596 -s 1 -d 2 -p cbr -e 400 -c 2 -i 6 -a 2 -x {1.0 5.0 -1 ------- null}
r -t 0.6076 -s 1 -d 2 -p cbr -e 400 -c 2 -i 6 -a 2 -x {1.0 5.0 6 ------- null}
+ -t 0.6076 -s 2 -d 3 -p cbr -e 400 -c 2 -i 6 -a 2 -x {1.0 5.0 6 ------- null}
- -t 0.6076 -s 2 -d 3 -p cbr -e 400 -c 2 -i 6 -a 2 -x {1.0 5.0 6 ------- null}
h -t 0.6076 -s 2 -d 3 -p cbr -e 400 -c 2 -i 6 -a 2 -x {1.0 5.0 -1 ------- null}
+ -t 0.612 -s 1 -d 2 -p cbr -e 400 -c 2 -i 7 -a 2 -x {1.0 5.0 7 ------- null}
- -t 0.612 -s 1 -d 2 -p cbr -e 400 -c 2 -i 7 -a 2 -x {1.0 5.0 7 ------- null}
h -t 0.612 -s 1 -d 2 -p cbr -e 400 -c 2 -i 7 -a 2 -x {1.0 5.0 -1 ------- null}
r -t 0.622266666666667 -s 2 -d 3 -p cbr -e 400 -c 2 -i 0 -a 2 -x {1.0 5.0 0 ------- null}
+ -t 0.622266666666667 -s 3 -d 5 -p cbr -e 400 -c 2 -i 0 -a 2 -x {1.0 5.0 0 ------- null}
- -t 0.622266666666667 -s 3 -d 5 -p cbr -e 400 -c 2 -i 0 -a 2 -x {1.0 5.0 0 ------- null}
h -t 0.622266666666667 -s 3 -d 5 -p cbr -e 400 -c 2 -i 0 -a 2 -x {1.0 5.0 -1 ------- null}
r -t 0.6236 -s 1 -d 2 -p cbr -e 400 -c 2 -i 7 -a 2 -x {1.0 5.0 7 ------- null}
+ -t 0.6236 -s 2 -d 3 -p cbr -e 400 -c 2 -i 7 -a 2 -x {1.0 5.0 7 ------- null}
- -t 0.6236 -s 2 -d 3 -p cbr -e 400 -c 2 -i 7 -a 2 -x {1.0 5.0 7 ------- null}
h -t 0.6236 -s 2 -d 3 -p cbr -e 400 -c 2 -i 7 -a 2 -x {1.0 5.0 -1 ------- null}
+ -t 0.628 -s 1 -d 2 -p cbr -e 400 -c 2 -i 8 -a 2 -x {1.0 5.0 8 ------- null}
- -t 0.628 -s 1 -d 2 -p cbr -e 400 -c 2 -i 8 -a 2 -x {1.0 5.0 8 ------- null}
h -t 0.628 -s 1 -d 2 -p cbr -e 400 -c 2 -i 8 -a 2 -x {1.0 5.0 -1 ------- null}
r -t 0.638266666666667 -s 2 -d 3 -p cbr -e 400 -c 2 -i 1 -a 2 -x {1.0 5.0 1 ------- null}
+ -t 0.638266666666667 -s 3 -d 5 -p cbr -e 400 -c 2 -i 1 -a 2 -x {1.0 5.0 1 ------- null}
- -t 0.638266666666667 -s 3 -d 5 -p cbr -e 400 -c 2 -i 1 -a 2 -x {1.0 5.0 1 ------- null}
h -t 0.638266666666667 -s 3 -d 5 -p cbr -e 400 -c 2 -i 1 -a 2 -x {1.0 5.0 -1 ------- null}
r -t 0.6396 -s 1 -d 2 -p cbr -e 400 -c 2 -i 8 -a 2 -x {1.0 5.0 8 ------- null}
+ -t 0.6396 -s 2 -d 3 -p cbr -e 400 -c 2 -i 8 -a 2 -x {1.0 5.0 8 ------- null}
- -t 0.6396 -s 2 -d 3 -p cbr -e 400 -c 2 -i 8 -a 2 -x {1.0 5.0 8 ------- null}
h -t 0.6396 -s 2 -d 3 -p cbr -e 400 -c 2 -i 8 -a 2 -x {1.0 5.0 -1 ------- null}
+ -t 0.644 -s 1 -d 2 -p cbr -e 400 -c 2 -i 9 -a 2 -x {1.0 5.0 9 ------- null}
- -t 0.644 -s 1 -d 2 -p cbr -e 400 -c 2 -i 9 -a 2 -x {1.0 5.0 9 ------- null}
h -t 0.644 -s 1 -d 2 -p cbr -e 400 -c 2 -i 9 -a 2 -x {1.0 5.0 -1 ------- null}
r -t 0.654266666666667 -s 2 -d 3 -p cbr -e 400 -c 2 -i 2 -a 2 -x {1.0 5.0 2 ------- null}
+ -t 0.654266666666667 -s 3 -d 5 -p cbr -e 400 -c 2 -i 2 -a 2 -x {1.0 5.0 2 ------- null}
- -t 0.654266666666667 -s 3 -d 5 -p cbr -e 400 -c 2 -i 2 -a 2 -x {1.0 5.0 2 ------- null}
h -t 0.654266666666667 -s 3 -d 5 -p cbr -e 400 -c 2 -i 2 -a 2 -x {1.0 5.0 -1 ------- null}
r -t 0.6556 -s 1 -d 2 -p cbr -e 400 -c 2 -i 9 -a 2 -x {1.0 5.0 9 ------- null}
+ -t 0.6556 -s 2 -d 3 -p cbr -e 400 -c 2 -i 9 -a 2 -x {1.0 5.0 9 ------- null}
- -t 0.6556 -s 2 -d 3 -p cbr -e 400 -c 2 -i 9 -a 2 -x {1.0 5.0 9 ------- null}
h -t 0.6556 -s 2 -d 3 -p cbr -e 400 -c 2 -i 9 -a 2 -x {1.0 5.0 -1 ------- null}
+ -t 0.66 -s 1 -d 2 -p cbr -e 400 -c 2 -i 10 -a 2 -x {1.0 5.0 10 ------- null}
- -t 0.66 -s 1 -d 2 -p cbr -e 400 -c 2 -i 10 -a 2 -x {1.0 5.0 10 ------- null}
h -t 0.66 -s 1 -d 2 -p cbr -e 400 -c 2 -i 10 -a 2 -x {1.0 5.0 -1 ------- null}
r -t 0.668666666666667 -s 3 -d 5 -p cbr -e 400 -c 2 -i 0 -a 2 -x {1.0 5.0 0 ------- null}
r -t 0.670266666666667 -s 2 -d 3 -p cbr -e 400 -c 2 -i 3 -a 2 -x {1.0 5.0 3 ------- null}
+ -t 0.670266666666667 -s 3 -d 5 -p cbr -e 400 -c 2 -i 3 -a 2 -x {1.0 5.0 3 ------- null}
- -t 0.670266666666667 -s 3 -d 5 -p cbr -e 400 -c 2 -i 3 -a 2 -x {1.0 5.0 3 ------- null}
h -t 0.670266666666667 -s 3 -d 5 -p cbr -e 400 -c 2 -i 3 -a 2 -x {1.0 5.0 -1 ------- null}
r -t 0.6716 -s 1 -d 2 -p cbr -e 400 -c 2 -i 10 -a 2 -x {1.0 5.0 10 ------- null}
+ -t 0.6716 -s 2 -d 3 -p cbr -e 400 -c 2 -i 10 -a 2 -x {1.0 5.0 10 ------- null}
- -t 0.6716 -s 2 -d 3 -p cbr -e 400 -c 2 -i 10 -a 2 -x {1.0 5.0 10 ------- null}
h -t 0.6716 -s 2 -d 3 -p cbr -e 400 -c 2 -i 10 -a 2 -x {1.0 5.0 -1 ------- null}
+ -t 0.676 -s 1 -d 2 -p cbr -e 400 -c 2 -i 11 -a 2 -x {1.0 5.0 11 ------- null}
- -t 0.676 -s 1 -d 2 -p cbr -e 400 -c 2 -i 11 -a 2 -x {1.0 5.0 11 ------- null}
h -t 0.676 -s 1 -d 2 -p cbr -e 400 -c 2 -i 11 -a 2 -x {1.0 5.0 -1 ------- null}
r -t 0.684666666666667 -s 3 -d 5 -p cbr -e 400 -c 2 -i 1 -a 2 -x {1.0 5.0 1 ------- null}
r -t 0.686266666666667 -s 2 -d 3 -p cbr -e 400 -c 2 -i 4 -a 2 -x {1.0 5.0 4 ------- null}
+ -t 0.686266666666667 -s 3 -d 5 -p cbr -e 400 -c 2 -i 4 -a 2 -x {1.0 5.0 4 ------- null}
- -t 0.686266666666667 -s 3 -d 5 -p cbr -e 400 -c 2 -i 4 -a 2 -x {1.0 5.0 4 ------- null}
h -t 0.686266666666667 -s 3 -d 5 -p cbr -e 400 -c 2 -i 4 -a 2 -x {1.0 5.0 -1 ------- null}
r -t 0.6876 -s 1 -d 2 -p cbr -e 400 -c 2 -i 11 -a 2 -x {1.0 5.0 11 ------- null}
+ -t 0.6876 -s 2 -d 3 -p cbr -e 400 -c 2 -i 11 -a 2 -x {1.0 5.0 11 ------- null}
- -t 0.6876 -s 2 -d 3 -p cbr -e 400 -c 2 -i 11 -a 2 -x {1.0 5.0 11 ------- null}
h -t 0.6876 -s 2 -d 3 -p cbr -e 400 -c 2 -i 11 -a 2 -x {1.0 5.0 -1 ------- null}
+ -t 0.692 -s 1 -d 2 -p cbr -e 400 -c 2 -i 12 -a 2 -x {1.0 5.0 12 ------- null}
- -t 0.692 -s 1 -d 2 -p cbr -e 400 -c 2 -i 12 -a 2 -x {1.0 5.0 12 ------- null}
h -t 0.692 -s 1 -d 2 -p cbr -e 400 -c 2 -i 12 -a 2 -x {1.0 5.0 -1 ------- null}
r -t 0.700666666666667 -s 3 -d 5 -p cbr -e 400 -c 2 -i 2 -a 2 -x {1.0 5.0 2 ------- null}
r -t 0.702266666666667 -s 2 -d 3 -p cbr -e 400 -c 2 -i 5 -a 2 -x {1.0 5.0 5 ------- null}
+ -t 0.702266666666667 -s 3 -d 5 -p cbr -e 400 -c 2 -i 5 -a 2 -x {1.0 5.0 5 ------- null}
- -t 0.702266666666667 -s 3 -d 5 -p cbr -e 400 -c 2 -i 5 -a 2 -x {1.0 5.0 5 ------- null}
h -t 0.702266666666667 -s 3 -d 5 -p cbr -e 400 -c 2 -i 5 -a 2 -x {1.0 5.0 -1 ------- null}
r -t 0.7036 -s 1 -d 2 -p cbr -e 400 -c 2 -i 12 -a 2 -x {1.0 5.0 12 ------- null}
+ -t 0.7036 -s 2 -d 3 -p cbr -e 400 -c 2 -i 12 -a 2 -x {1.0 5.0 12 ------- null}
- -t 0.7036 -s 2 -d 3 -p cbr -e 400 -c 2 -i 12 -a 2 -x {1.0 5.0 12 ------- null}
h -t 0.7036 -s 2 -d 3 -p cbr -e 400 -c 2 -i 12 -a 2 -x {1.0 5.0 -1 ------- null}
+ -t 0.708 -s 1 -d 2 -p cbr -e 400 -c 2 -i 13 -a 2 -x {1.0 5.0 13 ------- null}
- -t 0.708 -s 1 -d 2 -p cbr -e 400 -c 2 -i 13 -a 2 -x {1.0 5.0 13 ------- null}
h -t 0.708 -s 1 -d 2 -p cbr -e 400 -c 2 -i 13 -a 2 -x {1.0 5.0 -1 ------- null}
r -t 0.716666666666667 -s 3 -d 5 -p cbr -e 400 -c 2 -i 3 -a 2 -x {1.0 5.0 3 ------- null}
r -t 0.718266666666667 -s 2 -d 3 -p cbr -e 400 -c 2 -i 6 -a 2 -x {1.0 5.0 6 ------- null}
+ -t 0.718266666666667 -s 3 -d 5 -p cbr -e 400 -c 2 -i 6 -a 2 -x {1.0 5.0 6 ------- null}
- -t 0.718266666666667 -s 3 -d 5 -p cbr -e 400 -c 2 -i 6 -a 2 -x {1.0 5.0 6 ------- null}
h -t 0.718266666666667 -s 3 -d 5 -p cbr -e 400 -c 2 -i 6 -a 2 -x {1.0 5.0 -1 ------- null}
r -t 0.7196 -s 1 -d 2 -p cbr -e 400 -c 2 -i 13 -a 2 -x {1.0 5.0 13 ------- null}
+ -t 0.7196 -s 2 -d 3 -p cbr -e 400 -c 2 -i 13 -a 2 -x {1.0 5.0 13 ------- null}
- -t 0.7196 -s 2 -d 3 -p cbr -e 400 -c 2 -i 13 -a 2 -x {1.0 5.0 13 ------- null}
h -t 0.7196 -s 2 -d 3 -p cbr -e 400 -c 2 -i 13 -a 2 -x {1.0 5.0 -1 ------- null}
+ -t 0.724 -s 1 -d 2 -p cbr -e 400 -c 2 -i 14 -a 2 -x {1.0 5.0 14 ------- null}
- -t 0.724 -s 1 -d 2 -p cbr -e 400 -c 2 -i 14 -a 2 -x {1.0 5.0 14 ------- null}
h -t 0.724 -s 1 -d 2 -p cbr -e 400 -c 2 -i 14 -a 2 -x {1.0 5.0 -1 ------- null}
r -t 0.732666666666667 -s 3 -d 5 -p cbr -e 400 -c 2 -i 4 -a 2 -x {1.0 5.0 4 ------- null}
r -t 0.734266666666667 -s 2 -d 3 -p cbr -e 400 -c 2 -i 7 -a 2 -x {1.0 5.0 7 ------- null}
+ -t 0.734266666666667 -s 3 -d 5 -p cbr -e 400 -c 2 -i 7 -a 2 -x {1.0 5.0 7 ------- null}
- -t 0.734266666666667 -s 3 -d 5 -p cbr -e 400 -c 2 -i 7 -a 2 -x {1.0 5.0 7 ------- null}
h -t 0.734266666666667 -s 3 -d 5 -p cbr -e 400 -c 2 -i 7 -a 2 -x {1.0 5.0 -1 ------- null}
r -t 0.7356 -s 1 -d 2 -p cbr -e 400 -c 2 -i 14 -a 2 -x {1.0 5.0 14 ------- null}
+ -t 0.7356 -s 2 -d 3 -p cbr -e 400 -c 2 -i 14 -a 2 -x {1.0 5.0 14 ------- null}
- -t 0.7356 -s 2 -d 3 -p cbr -e 400 -c 2 -i 14 -a 2 -x {1.0 5.0 14 ------- null}
h -t 0.7356 -s 2 -d 3 -p cbr -e 400 -c 2 -i 14 -a 2 -x {1.0 5.0 -1 ------- null}
+ -t 0.74 -s 1 -d 2 -p cbr -e 400 -c 2 -i 15 -a 2 -x {1.0 5.0 15 ------- null}
- -t 0.74 -s 1 -d 2 -p cbr -e 400 -c 2 -i 15 -a 2 -x {1.0 5.0 15 ------- null}
h -t 0.74 -s 1 -d 2 -p cbr -e 400 -c 2 -i 15 -a 2 -x {1.0 5.0 -1 ------- null}
r -t 0.748666666666667 -s 3 -d 5 -p cbr -e 400 -c 2 -i 5 -a 2 -x {1.0 5.0 5 ------- null}
r -t 0.750266666666667 -s 2 -d 3 -p cbr -e 400 -c 2 -i 8 -a 2 -x {1.0 5.0 8 ------- null}
+ -t 0.750266666666667 -s 3 -d 5 -p cbr -e 400 -c 2 -i 8 -a 2 -x {1.0 5.0 8 ------- null}
- -t 0.750266666666667 -s 3 -d 5 -p cbr -e 400 -c 2 -i 8 -a 2 -x {1.0 5.0 8 ------- null}
h -t 0.750266666666667 -s 3 -d 5 -p cbr -e 400 -c 2 -i 8 -a 2 -x {1.0 5.0 -1 ------- null}
r -t 0.7516 -s 1 -d 2 -p cbr -e 400 -c 2 -i 15 -a 2 -x {1.0 5.0 15 ------- null}
+ -t 0.7516 -s 2 -d 3 -p cbr -e 400 -c 2 -i 15 -a 2 -x {1.0 5.0 15 ------- null}
- -t 0.7516 -s 2 -d 3 -p cbr -e 400 -c 2 -i 15 -a 2 -x {1.0 5.0 15 ------- null}
h -t 0.7516 -s 2 -d 3 -p cbr -e 400 -c 2 -i 15 -a 2 -x {1.0 5.0 -1 ------- null}
+ -t 0.756 -s 1 -d 2 -p cbr -e 400 -c 2 -i 16 -a 2 -x {1.0 5.0 16 ------- null}
- -t 0.756 -s 1 -d 2 -p cbr -e 400 -c 2 -i 16 -a 2 -x {1.0 5.0 16 ------- null}
h -t 0.756 -s 1 -d 2 -p cbr -e 400 -c 2 -i 16 -a 2 -x {1.0 5.0 -1 ------- null}
r -t 0.764666666666667 -s 3 -d 5 -p cbr -e 400 -c 2 -i 6 -a 2 -x {1.0 5.0 6 ------- null}
r -t 0.766266666666667 -s 2 -d 3 -p cbr -e 400 -c 2 -i 9 -a 2 -x {1.0 5.0 9 ------- null}
+ -t 0.766266666666667 -s 3 -d 5 -p cbr -e 400 -c 2 -i 9 -a 2 -x {1.0 5.0 9 ------- null}
- -t 0.766266666666667 -s 3 -d 5 -p cbr -e 400 -c 2 -i 9 -a 2 -x {1.0 5.0 9 ------- null}
h -t 0.766266666666667 -s 3 -d 5 -p cbr -e 400 -c 2 -i 9 -a 2 -x {1.0 5.0 -1 ------- null}
r -t 0.7676 -s 1 -d 2 -p cbr -e 400 -c 2 -i 16 -a 2 -x {1.0 5.0 16 ------- null}
+ -t 0.7676 -s 2 -d 3 -p cbr -e 400 -c 2 -i 16 -a 2 -x {1.0 5.0 16 ------- null}
- -t 0.7676 -s 2 -d 3 -p cbr -e 400 -c 2 -i 16 -a 2 -x {1.0 5.0 16 ------- null}
h -t 0.7676 -s 2 -d 3 -p cbr -e 400 -c 2 -i 16 -a 2 -x {1.0 5.0 -1 ------- null}
+ -t 0.772 -s 1 -d 2 -p cbr -e 400 -c 2 -i 17 -a 2 -x {1.0 5.0 17 ------- null}
- -t 0.772 -s 1 -d 2 -p cbr -e 400 -c 2 -i 17 -a 2 -x {1.0 5.0 17 ------- null}
h -t 0.772 -s 1 -d 2 -p cbr -e 400 -c 2 -i 17 -a 2 -x {1.0 5.0 -1 ------- null}
r -t 0.780666666666667 -s 3 -d 5 -p cbr -e 400 -c 2 -i 7 -a 2 -x {1.0 5.0 7 ------- null}
r -t 0.782266666666667 -s 2 -d 3 -p cbr -e 400 -c 2 -i 10 -a 2 -x {1.0 5.0 10 ------- null}
+ -t 0.782266666666667 -s 3 -d 5 -p cbr -e 400 -c 2 -i 10 -a 2 -x {1.0 5.0 10 ------- null}
- -t 0.782266666666667 -s 3 -d 5 -p cbr -e 400 -c 2 -i 10 -a 2 -x {1.0 5.0 10 ------- null}
h -t 0.782266666666667 -s 3 -d 5 -p cbr -e 400 -c 2 -i 10 -a 2 -x {1.0 5.0 -1 ------- null}
r -t 0.7836 -s 1 -d 2 -p cbr -e 400 -c 2 -i 17 -a 2 -x {1.0 5.0 17 ------- null}
+ -t 0.7836 -s 2 -d 3 -p cbr -e 400 -c 2 -i 17 -a 2 -x {1.0 5.0 17 ------- null}
- -t 0.7836 -s 2 -d 3 -p cbr -e 400 -c 2 -i 17 -a 2 -x {1.0 5.0 17 ------- null}
h -t 0.7836 -s 2 -d 3 -p cbr -e 400 -c 2 -i 17 -a 2 -x {1.0 5.0 -1 ------- null}
+ -t 0.788 -s 1 -d 2 -p cbr -e 400 -c 2 -i 18 -a 2 -x {1.0 5.0 18 ------- null}
- -t 0.788 -s 1 -d 2 -p cbr -e 400 -c 2 -i 18 -a 2 -x {1.0 5.0 18 ------- null}
h -t 0.788 -s 1 -d 2 -p cbr -e 400 -c 2 -i 18 -a 2 -x {1.0 5.0 -1 ------- null}
r -t 0.796666666666667 -s 3 -d 5 -p cbr -e 400 -c 2 -i 8 -a 2 -x {1.0 5.0 8 ------- null}
r -t 0.798266666666667 -s 2 -d 3 -p cbr -e 400 -c 2 -i 11 -a 2 -x {1.0 5.0 11 ------- null}
+ -t 0.798266666666667 -s 3 -d 5 -p cbr -e 400 -c 2 -i 11 -a 2 -x {1.0 5.0 11 ------- null}
- -t 0.798266666666667 -s 3 -d 5 -p cbr -e 400 -c 2 -i 11 -a 2 -x {1.0 5.0 11 ------- null}
h -t 0.798266666666667 -s 3 -d 5 -p cbr -e 400 -c 2 -i 11 -a 2 -x {1.0 5.0 -1 ------- null}
r -t 0.7996 -s 1 -d 2 -p cbr -e 400 -c 2 -i 18 -a 2 -x {1.0 5.0 18 ------- null}
+ -t 0.7996 -s 2 -d 3 -p cbr -e 400 -c 2 -i 18 -a 2 -x {1.0 5.0 18 ------- null}
- -t 0.7996 -s 2 -d 3 -p cbr -e 400 -c 2 -i 18 -a 2 -x {1.0 5.0 18 ------- null}
h -t 0.7996 -s 2 -d 3 -p cbr -e 400 -c 2 -i 18 -a 2 -x {1.0 5.0 -1 ------- null}
+ -t 0.804 -s 1 -d 2 -p cbr -e 400 -c 2 -i 19 -a 2 -x {1.0 5.0 19 ------- null}
- -t 0.804 -s 1 -d 2 -p cbr -e 400 -c 2 -i 19 -a 2 -x {1.0 5.0 19 ------- null}
h -t 0.804 -s 1 -d 2 -p cbr -e 400 -c 2 -i 19 -a 2 -x {1.0 5.0 -1 ------- null}
r -t 0.812666666666667 -s 3 -d 5 -p cbr -e 400 -c 2 -i 9 -a 2 -x {1.0 5.0 9 ------- null}
r -t 0.814266666666667 -s 2 -d 3 -p cbr -e 400 -c 2 -i 12 -a 2 -x {1.0 5.0 12 ------- null}
+ -t 0.814266666666667 -s 3 -d 5 -p cbr -e 400 -c 2 -i 12 -a 2 -x {1.0 5.0 12 ------- null}
- -t 0.814266666666667 -s 3 -d 5 -p cbr -e 400 -c 2 -i 12 -a 2 -x {1.0 5.0 12 ------- null}
h -t 0.814266666666667 -s 3 -d 5 -p cbr -e 400 -c 2 -i 12 -a 2 -x {1.0 5.0 -1 ------- null}
r -t 0.8156 -s 1 -d 2 -p cbr -e 400 -c 2 -i 19 -a 2 -x {1.0 5.0 19 ------- null}
+ -t 0.8156 -s 2 -d 3 -p cbr -e 400 -c 2 -i 19 -a 2 -x {1.0 5.0 19 ------- null}
- -t 0.8156 -s 2 -d 3 -p cbr -e 400 -c 2 -i 19 -a 2 -x {1.0 5.0 19 ------- null}
h -t 0.8156 -s 2 -d 3 -p cbr -e 400 -c 2 -i 19 -a 2 -x {1.0 5.0 -1 ------- null}
+ -t 0.82 -s 1 -d 2 -p cbr -e 400 -c 2 -i 20 -a 2 -x {1.0 5.0 20 ------- null}
- -t 0.82 -s 1 -d 2 -p cbr -e 400 -c 2 -i 20 -a 2 -x {1.0 5.0 20 ------- null}
h -t 0.82 -s 1 -d 2 -p cbr -e 400 -c 2 -i 20 -a 2 -x {1.0 5.0 -1 ------- null}
r -t 0.828666666666667 -s 3 -d 5 -p cbr -e 400 -c 2 -i 10 -a 2 -x {1.0 5.0 10 ------- null}
r -t 0.830266666666667 -s 2 -d 3 -p cbr -e 400 -c 2 -i 13 -a 2 -x {1.0 5.0 13 ------- null}
+ -t 0.830266666666667 -s 3 -d 5 -p cbr -e 400 -c 2 -i 13 -a 2 -x {1.0 5.0 13 ------- null}
- -t 0.830266666666667 -s 3 -d 5 -p cbr -e 400 -c 2 -i 13 -a 2 -x {1.0 5.0 13 ------- null}
h -t 0.830266666666667 -s 3 -d 5 -p cbr -e 400 -c 2 -i 13 -a 2 -x {1.0 5.0 -1 ------- null}
r -t 0.8316 -s 1 -d 2 -p cbr -e 400 -c 2 -i 20 -a 2 -x {1.0 5.0 20 ------- null}
+ -t 0.8316 -s 2 -d 3 -p cbr -e 400 -c 2 -i 20 -a 2 -x {1.0 5.0 20 ------- null}
- -t 0.8316 -s 2 -d 3 -p cbr -e 400 -c 2 -i 20 -a 2 -x {1.0 5.0 20 ------- null}
h -t 0.8316 -s 2 -d 3 -p cbr -e 400 -c 2 -i 20 -a 2 -x {1.0 5.0 -1 ------- null}
+ -t 0.836 -s 1 -d 2 -p cbr -e 400 -c 2 -i 21 -a 2 -x {1.0 5.0 21 ------- null}
- -t 0.836 -s 1 -d 2 -p cbr -e 400 -c 2 -i 21 -a 2 -x {1.0 5.0 21 ------- null}
h -t 0.836 -s 1 -d 2 -p cbr -e 400 -c 2 -i 21 -a 2 -x {1.0 5.0 -1 ------- null}
r -t 0.844666666666667 -s 3 -d 5 -p cbr -e 400 -c 2 -i 11 -a 2 -x {1.0 5.0 11 ------- null}
r -t 0.846266666666667 -s 2 -d 3 -p cbr -e 400 -c 2 -i 14 -a 2 -x {1.0 5.0 14 ------- null}
+ -t 0.846266666666667 -s 3 -d 5 -p cbr -e 400 -c 2 -i 14 -a 2 -x {1.0 5.0 14 ------- null}
- -t 0.846266666666667 -s 3 -d 5 -p cbr -e 400 -c 2 -i 14 -a 2 -x {1.0 5.0 14 ------- null}
h -t 0.846266666666667 -s 3 -d 5 -p cbr -e 400 -c 2 -i 14 -a 2 -x {1.0 5.0 -1 ------- null}
r -t 0.8476 -s 1 -d 2 -p cbr -e 400 -c 2 -i 21 -a 2 -x {1.0 5.0 21 ------- null}
+ -t 0.8476 -s 2 -d 3 -p cbr -e 400 -c 2 -i 21 -a 2 -x {1.0 5.0 21 ------- null}
- -t 0.8476 -s 2 -d 3 -p cbr -e 400 -c 2 -i 21 -a 2 -x {1.0 5.0 21 ------- null}
h -t 0.8476 -s 2 -d 3 -p cbr -e 400 -c 2 -i 21 -a 2 -x {1.0 5.0 -1 ------- null}
+ -t 0.852 -s 1 -d 2 -p cbr -e 400 -c 2 -i 22 -a 2 -x {1.0 5.0 22 ------- null}
- -t 0.852 -s 1 -d 2 -p cbr -e 400 -c 2 -i 22 -a 2 -x {1.0 5.0 22 ------- null}
h -t 0.852 -s 1 -d 2 -p cbr -e 400 -c 2 -i 22 -a 2 -x {1.0 5.0 -1 ------- null}
r -t 0.860666666666667 -s 3 -d 5 -p cbr -e 400 -c 2 -i 12 -a 2 -x {1.0 5.0 12 ------- null}
r -t 0.862266666666667 -s 2 -d 3 -p cbr -e 400 -c 2 -i 15 -a 2 -x {1.0 5.0 15 ------- null}
+ -t 0.862266666666667 -s 3 -d 5 -p cbr -e 400 -c 2 -i 15 -a 2 -x {1.0 5.0 15 ------- null}
- -t 0.862266666666667 -s 3 -d 5 -p cbr -e 400 -c 2 -i 15 -a 2 -x {1.0 5.0 15 ------- null}
h -t 0.862266666666667 -s 3 -d 5 -p cbr -e 400 -c 2 -i 15 -a 2 -x {1.0 5.0 -1 ------- null}
r -t 0.8636 -s 1 -d 2 -p cbr -e 400 -c 2 -i 22 -a 2 -x {1.0 5.0 22 ------- null}
+ -t 0.8636 -s 2 -d 3 -p cbr -e 400 -c 2 -i 22 -a 2 -x {1.0 5.0 22 ------- null}
- -t 0.8636 -s 2 -d 3 -p cbr -e 400 -c 2 -i 22 -a 2 -x {1.0 5.0 22 ------- null}
h -t 0.8636 -s 2 -d 3 -p cbr -e 400 -c 2 -i 22 -a 2 -x {1.0 5.0 -1 ------- null}
+ -t 0.868 -s 1 -d 2 -p cbr -e 400 -c 2 -i 23 -a 2 -x {1.0 5.0 23 ------- null}
- -t 0.868 -s 1 -d 2 -p cbr -e 400 -c 2 -i 23 -a 2 -x {1.0 5.0 23 ------- null}
h -t 0.868 -s 1 -d 2 -p cbr -e 400 -c 2 -i 23 -a 2 -x {1.0 5.0 -1 ------- null}
r -t 0.876666666666667 -s 3 -d 5 -p cbr -e 400 -c 2 -i 13 -a 2 -x {1.0 5.0 13 ------- null}
r -t 0.878266666666667 -s 2 -d 3 -p cbr -e 400 -c 2 -i 16 -a 2 -x {1.0 5.0 16 ------- null}
+ -t 0.878266666666667 -s 3 -d 5 -p cbr -e 400 -c 2 -i 16 -a 2 -x {1.0 5.0 16 ------- null}
- -t 0.878266666666667 -s 3 -d 5 -p cbr -e 400 -c 2 -i 16 -a 2 -x {1.0 5.0 16 ------- null}
h -t 0.878266666666667 -s 3 -d 5 -p cbr -e 400 -c 2 -i 16 -a 2 -x {1.0 5.0 -1 ------- null}
r -t 0.8796 -s 1 -d 2 -p cbr -e 400 -c 2 -i 23 -a 2 -x {1.0 5.0 23 ------- null}
+ -t 0.8796 -s 2 -d 3 -p cbr -e 400 -c 2 -i 23 -a 2 -x {1.0 5.0 23 ------- null}
- -t 0.8796 -s 2 -d 3 -p cbr -e 400 -c 2 -i 23 -a 2 -x {1.0 5.0 23 ------- null}
h -t 0.8796 -s 2 -d 3 -p cbr -e 400 -c 2 -i 23 -a 2 -x {1.0 5.0 -1 ------- null}
+ -t 0.884 -s 1 -d 2 -p cbr -e 400 -c 2 -i 24 -a 2 -x {1.0 5.0 24 ------- null}
- -t 0.884 -s 1 -d 2 -p cbr -e 400 -c 2 -i 24 -a 2 -x {1.0 5.0 24 ------- null}
h -t 0.884 -s 1 -d 2 -p cbr -e 400 -c 2 -i 24 -a 2 -x {1.0 5.0 -1 ------- null}
r -t 0.892666666666667 -s 3 -d 5 -p cbr -e 400 -c 2 -i 14 -a 2 -x {1.0 5.0 14 ------- null}
r -t 0.894266666666667 -s 2 -d 3 -p cbr -e 400 -c 2 -i 17 -a 2 -x {1.0 5.0 17 ------- null}
+ -t 0.894266666666667 -s 3 -d 5 -p cbr -e 400 -c 2 -i 17 -a 2 -x {1.0 5.0 17 ------- null}
- -t 0.894266666666667 -s 3 -d 5 -p cbr -e 400 -c 2 -i 17 -a 2 -x {1.0 5.0 17 ------- null}
h -t 0.894266666666667 -s 3 -d 5 -p cbr -e 400 -c 2 -i 17 -a 2 -x {1.0 5.0 -1 ------- null}
r -t 0.8956 -s 1 -d 2 -p cbr -e 400 -c 2 -i 24 -a 2 -x {1.0 5.0 24 ------- null}
+ -t 0.8956 -s 2 -d 3 -p cbr -e 400 -c 2 -i 24 -a 2 -x {1.0 5.0 24 ------- null}
- -t 0.8956 -s 2 -d 3 -p cbr -e 400 -c 2 -i 24 -a 2 -x {1.0 5.0 24 ------- null}
h -t 0.8956 -s 2 -d 3 -p cbr -e 400 -c 2 -i 24 -a 2 -x {1.0 5.0 -1 ------- null}
+ -t 0.9 -s 1 -d 2 -p cbr -e 400 -c 2 -i 25 -a 2 -x {1.0 5.0 25 ------- null}
- -t 0.9 -s 1 -d 2 -p cbr -e 400 -c 2 -i 25 -a 2 -x {1.0 5.0 25 ------- null}
h -t 0.9 -s 1 -d 2 -p cbr -e 400 -c 2 -i 25 -a 2 -x {1.0 5.0 -1 ------- null}
r -t 0.908666666666667 -s 3 -d 5 -p cbr -e 400 -c 2 -i 15 -a 2 -x {1.0 5.0 15 ------- null}
r -t 0.910266666666667 -s 2 -d 3 -p cbr -e 400 -c 2 -i 18 -a 2 -x {1.0 5.0 18 ------- null}
+ -t 0.910266666666667 -s 3 -d 5 -p cbr -e 400 -c 2 -i 18 -a 2 -x {1.0 5.0 18 ------- null}
- -t 0.910266666666667 -s 3 -d 5 -p cbr -e 400 -c 2 -i 18 -a 2 -x {1.0 5.0 18 ------- null}
h -t 0.910266666666667 -s 3 -d 5 -p cbr -e 400 -c 2 -i 18 -a 2 -x {1.0 5.0 -1 ------- null}
r -t 0.9116 -s 1 -d 2 -p cbr -e 400 -c 2 -i 25 -a 2 -x {1.0 5.0 25 ------- null}
+ -t 0.9116 -s 2 -d 3 -p cbr -e 400 -c 2 -i 25 -a 2 -x {1.0 5.0 25 ------- null}
- -t 0.9116 -s 2 -d 3 -p cbr -e 400 -c 2 -i 25 -a 2 -x {1.0 5.0 25 ------- null}
h -t 0.9116 -s 2 -d 3 -p cbr -e 400 -c 2 -i 25 -a 2 -x {1.0 5.0 -1 ------- null}
+ -t 0.916 -s 1 -d 2 -p cbr -e 400 -c 2 -i 26 -a 2 -x {1.0 5.0 26 ------- null}
- -t 0.916 -s 1 -d 2 -p cbr -e 400 -c 2 -i 26 -a 2 -x {1.0 5.0 26 ------- null}
h -t 0.916 -s 1 -d 2 -p cbr -e 400 -c 2 -i 26 -a 2 -x {1.0 5.0 -1 ------- null}
r -t 0.924666666666667 -s 3 -d 5 -p cbr -e 400 -c 2 -i 16 -a 2 -x {1.0 5.0 16 ------- null}
r -t 0.926266666666667 -s 2 -d 3 -p cbr -e 400 -c 2 -i 19 -a 2 -x {1.0 5.0 19 ------- null}
+ -t 0.926266666666667 -s 3 -d 5 -p cbr -e 400 -c 2 -i 19 -a 2 -x {1.0 5.0 19 ------- null}
- -t 0.926266666666667 -s 3 -d 5 -p cbr -e 400 -c 2 -i 19 -a 2 -x {1.0 5.0 19 ------- null}
h -t 0.926266666666667 -s 3 -d 5 -p cbr -e 400 -c 2 -i 19 -a 2 -x {1.0 5.0 -1 ------- null}
r -t 0.9276 -s 1 -d 2 -p cbr -e 400 -c 2 -i 26 -a 2 -x {1.0 5.0 26 ------- null}
+ -t 0.9276 -s 2 -d 3 -p cbr -e 400 -c 2 -i 26 -a 2 -x {1.0 5.0 26 ------- null}
- -t 0.9276 -s 2 -d 3 -p cbr -e 400 -c 2 -i 26 -a 2 -x {1.0 5.0 26 ------- null}
h -t 0.9276 -s 2 -d 3 -p cbr -e 400 -c 2 -i 26 -a 2 -x {1.0 5.0 -1 ------- null}
+ -t 0.932 -s 1 -d 2 -p cbr -e 400 -c 2 -i 27 -a 2 -x {1.0 5.0 27 ------- null}
- -t 0.932 -s 1 -d 2 -p cbr -e 400 -c 2 -i 27 -a 2 -x {1.0 5.0 27 ------- null}
h -t 0.932 -s 1 -d 2 -p cbr -e 400 -c 2 -i 27 -a 2 -x {1.0 5.0 -1 ------- null}
r -t 0.940666666666667 -s 3 -d 5 -p cbr -e 400 -c 2 -i 17 -a 2 -x {1.0 5.0 17 ------- null}
r -t 0.942266666666667 -s 2 -d 3 -p cbr -e 400 -c 2 -i 20 -a 2 -x {1.0 5.0 20 ------- null}
+ -t 0.942266666666667 -s 3 -d 5 -p cbr -e 400 -c 2 -i 20 -a 2 -x {1.0 5.0 20 ------- null}
- -t 0.942266666666667 -s 3 -d 5 -p cbr -e 400 -c 2 -i 20 -a 2 -x {1.0 5.0 20 ------- null}
h -t 0.942266666666667 -s 3 -d 5 -p cbr -e 400 -c 2 -i 20 -a 2 -x {1.0 5.0 -1 ------- null}
r -t 0.9436 -s 1 -d 2 -p cbr -e 400 -c 2 -i 27 -a 2 -x {1.0 5.0 27 ------- null}
+ -t 0.9436 -s 2 -d 3 -p cbr -e 400 -c 2 -i 27 -a 2 -x {1.0 5.0 27 ------- null}
- -t 0.9436 -s 2 -d 3 -p cbr -e 400 -c 2 -i 27 -a 2 -x {1.0 5.0 27 ------- null}
h -t 0.9436 -s 2 -d 3 -p cbr -e 400 -c 2 -i 27 -a 2 -x {1.0 5.0 -1 ------- null}
+ -t 0.948 -s 1 -d 2 -p cbr -e 400 -c 2 -i 28 -a 2 -x {1.0 5.0 28 ------- null}
- -t 0.948 -s 1 -d 2 -p cbr -e 400 -c 2 -i 28 -a 2 -x {1.0 5.0 28 ------- null}
h -t 0.948 -s 1 -d 2 -p cbr -e 400 -c 2 -i 28 -a 2 -x {1.0 5.0 -1 ------- null}
r -t 0.956666666666667 -s 3 -d 5 -p cbr -e 400 -c 2 -i 18 -a 2 -x {1.0 5.0 18 ------- null}
r -t 0.958266666666667 -s 2 -d 3 -p cbr -e 400 -c 2 -i 21 -a 2 -x {1.0 5.0 21 ------- null}
+ -t 0.958266666666667 -s 3 -d 5 -p cbr -e 400 -c 2 -i 21 -a 2 -x {1.0 5.0 21 ------- null}
- -t 0.958266666666667 -s 3 -d 5 -p cbr -e 400 -c 2 -i 21 -a 2 -x {1.0 5.0 21 ------- null}
h -t 0.958266666666667 -s 3 -d 5 -p cbr -e 400 -c 2 -i 21 -a 2 -x {1.0 5.0 -1 ------- null}
r -t 0.9596 -s 1 -d 2 -p cbr -e 400 -c 2 -i 28 -a 2 -x {1.0 5.0 28 ------- null}
+ -t 0.9596 -s 2 -d 3 -p cbr -e 400 -c 2 -i 28 -a 2 -x {1.0 5.0 28 ------- null}
- -t 0.9596 -s 2 -d 3 -p cbr -e 400 -c 2 -i 28 -a 2 -x {1.0 5.0 28 ------- null}
h -t 0.9596 -s 2 -d 3 -p cbr -e 400 -c 2 -i 28 -a 2 -x {1.0 5.0 -1 ------- null}
+ -t 0.964 -s 1 -d 2 -p cbr -e 400 -c 2 -i 29 -a 2 -x {1.0 5.0 29 ------- null}
- -t 0.964 -s 1 -d 2 -p cbr -e 400 -c 2 -i 29 -a 2 -x {1.0 5.0 29 ------- null}
h -t 0.964 -s 1 -d 2 -p cbr -e 400 -c 2 -i 29 -a 2 -x {1.0 5.0 -1 ------- null}
r -t 0.972666666666667 -s 3 -d 5 -p cbr -e 400 -c 2 -i 19 -a 2 -x {1.0 5.0 19 ------- null}
r -t 0.974266666666667 -s 2 -d 3 -p cbr -e 400 -c 2 -i 22 -a 2 -x {1.0 5.0 22 ------- null}
+ -t 0.974266666666667 -s 3 -d 5 -p cbr -e 400 -c 2 -i 22 -a 2 -x {1.0 5.0 22 ------- null}
- -t 0.974266666666667 -s 3 -d 5 -p cbr -e 400 -c 2 -i 22 -a 2 -x {1.0 5.0 22 ------- null}
h -t 0.974266666666667 -s 3 -d 5 -p cbr -e 400 -c 2 -i 22 -a 2 -x {1.0 5.0 -1 ------- null}
r -t 0.9756 -s 1 -d 2 -p cbr -e 400 -c 2 -i 29 -a 2 -x {1.0 5.0 29 ------- null}
+ -t 0.9756 -s 2 -d 3 -p cbr -e 400 -c 2 -i 29 -a 2 -x {1.0 5.0 29 ------- null}
- -t 0.9756 -s 2 -d 3 -p cbr -e 400 -c 2 -i 29 -a 2 -x {1.0 5.0 29 ------- null}
h -t 0.9756 -s 2 -d 3 -p cbr -e 400 -c 2 -i 29 -a 2 -x {1.0 5.0 -1 ------- null}
+ -t 0.98 -s 1 -d 2 -p cbr -e 400 -c 2 -i 30 -a 2 -x {1.0 5.0 30 ------- null}
- -t 0.98 -s 1 -d 2 -p cbr -e 400 -c 2 -i 30 -a 2 -x {1.0 5.0 30 ------- null}
h -t 0.98 -s 1 -d 2 -p cbr -e 400 -c 2 -i 30 -a 2 -x {1.0 5.0 -1 ------- null}
r -t 0.988666666666667 -s 3 -d 5 -p cbr -e 400 -c 2 -i 20 -a 2 -x {1.0 5.0 20 ------- null}
r -t 0.990266666666667 -s 2 -d 3 -p cbr -e 400 -c 2 -i 23 -a 2 -x {1.0 5.0 23 ------- null}
+ -t 0.990266666666667 -s 3 -d 5 -p cbr -e 400 -c 2 -i 23 -a 2 -x {1.0 5.0 23 ------- null}
- -t 0.990266666666667 -s 3 -d 5 -p cbr -e 400 -c 2 -i 23 -a 2 -x {1.0 5.0 23 ------- null}
h -t 0.990266666666667 -s 3 -d 5 -p cbr -e 400 -c 2 -i 23 -a 2 -x {1.0 5.0 -1 ------- null}
r -t 0.9916 -s 1 -d 2 -p cbr -e 400 -c 2 -i 30 -a 2 -x {1.0 5.0 30 ------- null}
+ -t 0.9916 -s 2 -d 3 -p cbr -e 400 -c 2 -i 30 -a 2 -x {1.0 5.0 30 ------- null}
- -t 0.9916 -s 2 -d 3 -p cbr -e 400 -c 2 -i 30 -a 2 -x {1.0 5.0 30 ------- null}
h -t 0.9916 -s 2 -d 3 -p cbr -e 400 -c 2 -i 30 -a 2 -x {1.0 5.0 -1 ------- null}
+ -t 0.996 -s 1 -d 2 -p cbr -e 400 -c 2 -i 31 -a 2 -x {1.0 5.0 31 ------- null}
- -t 0.996 -s 1 -d 2 -p cbr -e 400 -c 2 -i 31 -a 2 -x {1.0 5.0 31 ------- null}
h -t 0.996 -s 1 -d 2 -p cbr -e 400 -c 2 -i 31 -a 2 -x {1.0 5.0 -1 ------- null}
+ -t 1 -s 0 -d 2 -p tcp -e 40 -c 1 -i 32 -a 1 -x {0.0 4.0 0 ------- null}
- -t 1 -s 0 -d 2 -p tcp -e 40 -c 1 -i 32 -a 1 -x {0.0 4.0 0 ------- null}
h -t 1 -s 0 -d 2 -p tcp -e 40 -c 1 -i 32 -a 1 -x {0.0 4.0 -1 ------- null}
r -t 1.00466666666667 -s 3 -d 5 -p cbr -e 400 -c 2 -i 21 -a 2 -x {1.0 5.0 21 ------- null}
r -t 1.00626666666667 -s 2 -d 3 -p cbr -e 400 -c 2 -i 24 -a 2 -x {1.0 5.0 24 ------- null}
+ -t 1.00626666666667 -s 3 -d 5 -p cbr -e 400 -c 2 -i 24 -a 2 -x {1.0 5.0 24 ------- null}
- -t 1.00626666666667 -s 3 -d 5 -p cbr -e 400 -c 2 -i 24 -a 2 -x {1.0 5.0 24 ------- null}
h -t 1.00626666666667 -s 3 -d 5 -p cbr -e 400 -c 2 -i 24 -a 2 -x {1.0 5.0 -1 ------- null}
r -t 1.0076 -s 1 -d 2 -p cbr -e 400 -c 2 -i 31 -a 2 -x {1.0 5.0 31 ------- null}
+ -t 1.0076 -s 2 -d 3 -p cbr -e 400 -c 2 -i 31 -a 2 -x {1.0 5.0 31 ------- null}