+ 0.5 1 2 cbr 400 ------- 2 1.0 5.0 0 0
- 0.5 1 2 cbr 400 ------- 2 1.0 5.0 0 0
r 0.5116 1 2 cbr 400 ------- 2 1.0 5.0 0 0
+ 0.5116 2 3 cbr 400 ------- 2 1.0 5.0 0 0
- 0.5116 2 3 cbr 400 ------- 2 1.0 5.0 0 0
+ 0.516 1 2 cbr 400 ------- 2 1.0 5.0 1 1
- 0.516 1 2 cbr 400 ------- 2 1.0 5.0 1 1
r 0.5276 1 2 cbr 400 ------- 2 1.0 5.0 1 1
+ 0.5276 2 3 cbr 400 ------- 2 1.0 5.0 1 1
- 0.5276 2 3 cbr 400 ------- 2 1.0 5.0 1 1
+ 0.532 1 2 cbr 400 ------- 2 1.0 5.0 2 2
- 0.532 1 2 cbr 400 ------- 2 1.0 5.0 2 2
r 0.5436 1 2 cbr 400 ------- 2 1.0 5.0 2 2
+ 0.5436 2 3 cbr 400 ------- 2 1.0 5.0 2 2
- 0.5436 2 3 cbr 400 ------- 2 1.0 5.0 2 2
+ 0.548 1 2 cbr 400 ------- 2 1.0 5.0 3 3
- 0.548 1 2 cbr 400 ------- 2 1.0 5.0 3 3
r 0.5596 1 2 cbr 400 ------- 2 1.0 5.0 3 3
+ 0.5596 2 3 cbr 400 ------- 2 1.0 5.0 3 3
- 0.5596 2 3 cbr 400 ------- 2 1.0 5.0 3 3
+ 0.564 1 2 cbr 400 ------- 2 1.0 5.0 4 4
- 0.564 1 2 cbr 400 ------- 2 1.0 5.0 4 4
r 0.5756 1 2 cbr 400 ------- 2 1.0 5.0 4 4
+ 0.5756 2 3 cbr 400 ------- 2 1.0 5.0 4 4
- 0.5756 2 3 cbr 400 ------- 2 1.0 5.0 4 4
+ 0.58 1 2 cbr 400 ------- 2 1.0 5.0 5 5
- 0.58 1 2 cbr 400 ------- 2 1.0 5.0 5 5
r 0.5916 1 2 cbr 400 ------- 2 1.0 5.0 5 5
+ 0.5916 2 3 cbr 400 ------- 2 1.0 5.0 5 5
- 0.5916 2 3 cbr 400 ------- 2 1.0 5.0 5 5
+ 0.596 1 2 cbr 400 ------- 2 1.0 5.0 6 6
- 0.596 1 2 cbr 400 ------- 2 1.0 5.0 6 6
r 0.6076 1 2 cbr 400 ------- 2 1.0 5.0 6 6
+ 0.6076 2 3 cbr 400 ------- 2 1.0 5.0 6 6
- 0.6076 2 3 cbr 400 ------- 2 1.0 5.0 6 6
+ 0.612 1 2 cbr 400 ------- 2 1.0 5.0 7 7
- 0.612 1 2 cbr 400 ------- 2 1.0 5.0 7 7
r 0.622267 2 3 cbr 400 ------- 2 1.0 5.0 0 0
+ 0.622267 3 5 cbr 400 ------- 2 1.0 5.0 0 0
- 0.622267 3 5 cbr 400 ------- 2 1.0 5.0 0 0
r 0.6236 1 2 cbr 400 ------- 2 1.0 5.0 7 7
+ 0.6236 2 3 cbr 400 ------- 2 1.0 5.0 7 7
- 0.6236 2 3 cbr 400 ------- 2 1.0 5.0 7 7
+ 0.628 1 2 cbr 400 ------- 2 1.0 5.0 8 8
- 0.628 1 2 cbr 400 ------- 2 1.0 5.0 8 8
r 0.638267 2 3 cbr 400 ------- 2 1.0 5.0 1 1
+ 0.638267 3 5 cbr 400 ------- 2 1.0 5.0 1 1
- 0.638267 3 5 cbr 400 ------- 2 1.0 5.0 1 1
r 0.6396 1 2 cbr 400 ------- 2 1.0 5.0 8 8
+ 0.6396 2 3 cbr 400 ------- 2 1.0 5.0 8 8
- 0.6396 2 3 cbr 400 ------- 2 1.0 5.0 8 8
+ 0.644 1 2 cbr 400 ------- 2 1.0 5.0 9 9
- 0.644 1 2 cbr 400 ------- 2 1.0 5.0 9 9
r 0.654267 2 3 cbr 400 ------- 2 1.0 5.0 2 2
+ 0.654267 3 5 cbr 400 ------- 2 1.0 5.0 2 2
- 0.654267 3 5 cbr 400 ------- 2 1.0 5.0 2 2
r 0.6556 1 2 cbr 400 ------- 2 1.0 5.0 9 9
+ 0.6556 2 3 cbr 400 ------- 2 1.0 5.0 9 9
- 0.6556 2 3 cbr 400 ------- 2 1.0 5.0 9 9
+ 0.66 1 2 cbr 400 ------- 2 1.0 5.0 10 10
- 0.66 1 2 cbr 400 ------- 2 1.0 5.0 10 10
r 0.668667 3 5 cbr 400 ------- 2 1.0 5.0 0 0
r 0.670267 2 3 cbr 400 ------- 2 1.0 5.0 3 3
+ 0.670267 3 5 cbr 400 ------- 2 1.0 5.0 3 3
- 0.670267 3 5 cbr 400 ------- 2 1.0 5.0 3 3
r 0.6716 1 2 cbr 400 ------- 2 1.0 5.0 10 10
+ 0.6716 2 3 cbr 400 ------- 2 1.0 5.0 10 10
- 0.6716 2 3 cbr 400 ------- 2 1.0 5.0 10 10
+ 0.676 1 2 cbr 400 ------- 2 1.0 5.0 11 11
- 0.676 1 2 cbr 400 ------- 2 1.0 5.0 11 11
r 0.684667 3 5 cbr 400 ------- 2 1.0 5.0 1 1
r 0.686267 2 3 cbr 400 ------- 2 1.0 5.0 4 4
+ 0.686267 3 5 cbr 400 ------- 2 1.0 5.0 4 4
- 0.686267 3 5 cbr 400 ------- 2 1.0 5.0 4 4
r 0.6876 1 2 cbr 400 ------- 2 1.0 5.0 11 11
+ 0.6876 2 3 cbr 400 ------- 2 1.0 5.0 11 11
- 0.6876 2 3 cbr 400 ------- 2 1.0 5.0 11 11
+ 0.692 1 2 cbr 400 ------- 2 1.0 5.0 12 12
- 0.692 1 2 cbr 400 ------- 2 1.0 5.0 12 12
r 0.700667 3 5 cbr 400 ------- 2 1.0 5.0 2 2
r 0.702267 2 3 cbr 400 ------- 2 1.0 5.0 5 5
+ 0.702267 3 5 cbr 400 ------- 2 1.0 5.0 5 5
- 0.702267 3 5 cbr 400 ------- 2 1.0 5.0 5 5
r 0.7036 1 2 cbr 400 ------- 2 1.0 5.0 12 12
+ 0.7036 2 3 cbr 400 ------- 2 1.0 5.0 12 12
- 0.7036 2 3 cbr 400 ------- 2 1.0 5.0 12 12
+ 0.708 1 2 cbr 400 ------- 2 1.0 5.0 13 13
- 0.708 1 2 cbr 400 ------- 2 1.0 5.0 13 13
r 0.716667 3 5 cbr 400 ------- 2 1.0 5.0 3 3
r 0.718267 2 3 cbr 400 ------- 2 1.0 5.0 6 6
+ 0.718267 3 5 cbr 400 ------- 2 1.0 5.0 6 6
- 0.718267 3 5 cbr 400 ------- 2 1.0 5.0 6 6
r 0.7196 1 2 cbr 400 ------- 2 1.0 5.0 13 13
+ 0.7196 2 3 cbr 400 ------- 2 1.0 5.0 13 13
- 0.7196 2 3 cbr 400 ------- 2 1.0 5.0 13 13
+ 0.724 1 2 cbr 400 ------- 2 1.0 5.0 14 14
- 0.724 1 2 cbr 400 ------- 2 1.0 5.0 14 14
r 0.732667 3 5 cbr 400 ------- 2 1.0 5.0 4 4
r 0.734267 2 3 cbr 400 ------- 2 1.0 5.0 7 7
+ 0.734267 3 5 cbr 400 ------- 2 1.0 5.0 7 7
- 0.734267 3 5 cbr 400 ------- 2 1.0 5.0 7 7
r 0.7356 1 2 cbr 400 ------- 2 1.0 5.0 14 14
+ 0.7356 2 3 cbr 400 ------- 2 1.0 5.0 14 14
- 0.7356 2 3 cbr 400 ------- 2 1.0 5.0 14 14
+ 0.74 1 2 cbr 400 ------- 2 1.0 5.0 15 15
- 0.74 1 2 cbr 400 ------- 2 1.0 5.0 15 15
r 0.748667 3 5 cbr 400 ------- 2 1.0 5.0 5 5
r 0.750267 2 3 cbr 400 ------- 2 1.0 5.0 8 8
+ 0.750267 3 5 cbr 400 ------- 2 1.0 5.0 8 8
- 0.750267 3 5 cbr 400 ------- 2 1.0 5.0 8 8
r 0.7516 1 2 cbr 400 ------- 2 1.0 5.0 15 15
+ 0.7516 2 3 cbr 400 ------- 2 1.0 5.0 15 15
- 0.7516 2 3 cbr 400 ------- 2 1.0 5.0 15 15
+ 0.756 1 2 cbr 400 ------- 2 1.0 5.0 16 16
- 0.756 1 2 cbr 400 ------- 2 1.0 5.0 16 16
r 0.764667 3 5 cbr 400 ------- 2 1.0 5.0 6 6
r 0.766267 2 3 cbr 400 ------- 2 1.0 5.0 9 9
+ 0.766267 3 5 cbr 400 ------- 2 1.0 5.0 9 9
- 0.766267 3 5 cbr 400 ------- 2 1.0 5.0 9 9
r 0.7676 1 2 cbr 400 ------- 2 1.0 5.0 16 16
+ 0.7676 2 3 cbr 400 ------- 2 1.0 5.0 16 16
- 0.7676 2 3 cbr 400 ------- 2 1.0 5.0 16 16
+ 0.772 1 2 cbr 400 ------- 2 1.0 5.0 17 17
- 0.772 1 2 cbr 400 ------- 2 1.0 5.0 17 17
r 0.780667 3 5 cbr 400 ------- 2 1.0 5.0 7 7
r 0.782267 2 3 cbr 400 ------- 2 1.0 5.0 10 10
+ 0.782267 3 5 cbr 400 ------- 2 1.0 5.0 10 10
- 0.782267 3 5 cbr 400 ------- 2 1.0 5.0 10 10
r 0.7836 1 2 cbr 400 ------- 2 1.0 5.0 17 17
+ 0.7836 2 3 cbr 400 ------- 2 1.0 5.0 17 17
- 0.7836 2 3 cbr 400 ------- 2 1.0 5.0 17 17
+ 0.788 1 2 cbr 400 ------- 2 1.0 5.0 18 18
- 0.788 1 2 cbr 400 ------- 2 1.0 5.0 18 18
r 0.796667 3 5 cbr 400 ------- 2 1.0 5.0 8 8
r 0.798267 2 3 cbr 400 ------- 2 1.0 5.0 11 11
+ 0.798267 3 5 cbr 400 ------- 2 1.0 5.0 11 11
- 0.798267 3 5 cbr 400 ------- 2 1.0 5.0 11 11
r 0.7996 1 2 cbr 400 ------- 2 1.0 5.0 18 18
+ 0.7996 2 3 cbr 400 ------- 2 1.0 5.0 18 18
- 0.7996 2 3 cbr 400 ------- 2 1.0 5.0 18 18
+ 0.804 1 2 cbr 400 ------- 2 1.0 5.0 19 19
- 0.804 1 2 cbr 400 ------- 2 1.0 5.0 19 19
r 0.812667 3 5 cbr 400 ------- 2 1.0 5.0 9 9
r 0.814267 2 3 cbr 400 ------- 2 1.0 5.0 12 12
+ 0.814267 3 5 cbr 400 ------- 2 1.0 5.0 12 12
- 0.814267 3 5 cbr 400 ------- 2 1.0 5.0 12 12
r 0.8156 1 2 cbr 400 ------- 2 1.0 5.0 19 19
+ 0.8156 2 3 cbr 400 ------- 2 1.0 5.0 19 19
- 0.8156 2 3 cbr 400 ------- 2 1.0 5.0 19 19
+ 0.82 1 2 cbr 400 ------- 2 1.0 5.0 20 20
- 0.82 1 2 cbr 400 ------- 2 1.0 5.0 20 20
r 0.828667 3 5 cbr 400 ------- 2 1.0 5.0 10 10
r 0.830267 2 3 cbr 400 ------- 2 1.0 5.0 13 13
+ 0.830267 3 5 cbr 400 ------- 2 1.0 5.0 13 13
- 0.830267 3 5 cbr 400 ------- 2 1.0 5.0 13 13
r 0.8316 1 2 cbr 400 ------- 2 1.0 5.0 20 20
+ 0.8316 2 3 cbr 400 ------- 2 1.0 5.0 20 20
- 0.8316 2 3 cbr 400 ------- 2 1.0 5.0 20 20
+ 0.836 1 2 cbr 400 ------- 2 1.0 5.0 21 21
- 0.836 1 2 cbr 400 ------- 2 1.0 5.0 21 21
r 0.844667 3 5 cbr 400 ------- 2 1.0 5.0 11 11
r 0.846267 2 3 cbr 400 ------- 2 1.0 5.0 14 14
+ 0.846267 3 5 cbr 400 ------- 2 1.0 5.0 14 14
- 0.846267 3 5 cbr 400 ------- 2 1.0 5.0 14 14
r 0.8476 1 2 cbr 400 ------- 2 1.0 5.0 21 21
+ 0.8476 2 3 cbr 400 ------- 2 1.0 5.0 21 21
- 0.8476 2 3 cbr 400 ------- 2 1.0 5.0 21 21
+ 0.852 1 2 cbr 400 ------- 2 1.0 5.0 22 22
- 0.852 1 2 cbr 400 ------- 2 1.0 5.0 22 22
r 0.860667 3 5 cbr 400 ------- 2 1.0 5.0 12 12
r 0.862267 2 3 cbr 400 ------- 2 1.0 5.0 15 15
+ 0.862267 3 5 cbr 400 ------- 2 1.0 5.0 15 15
- 0.862267 3 5 cbr 400 ------- 2 1.0 5.0 15 15
r 0.8636 1 2 cbr 400 ------- 2 1.0 5.0 22 22
+ 0.8636 2 3 cbr 400 ------- 2 1.0 5.0 22 22
- 0.8636 2 3 cbr 400 ------- 2 1.0 5.0 22 22
+ 0.868 1 2 cbr 400 ------- 2 1.0 5.0 23 23
- 0.868 1 2 cbr 400 ------- 2 1.0 5.0 23 23
r 0.876667 3 5 cbr 400 ------- 2 1.0 5.0 13 13
r 0.878267 2 3 cbr 400 ------- 2 1.0 5.0 16 16
+ 0.878267 3 5 cbr 400 ------- 2 1.0 5.0 16 16
- 0.878267 3 5 cbr 400 ------- 2 1.0 5.0 16 16
r 0.8796 1 2 cbr 400 ------- 2 1.0 5.0 23 23
+ 0.8796 2 3 cbr 400 ------- 2 1.0 5.0 23 23
- 0.8796 2 3 cbr 400 ------- 2 1.0 5.0 23 23
+ 0.884 1 2 cbr 400 ------- 2 1.0 5.0 24 24
- 0.884 1 2 cbr 400 ------- 2 1.0 5.0 24 24
r 0.892667 3 5 cbr 400 ------- 2 1.0 5.0 14 14
r 0.894267 2 3 cbr 400 ------- 2 1.0 5.0 17 17
+ 0.894267 3 5 cbr 400 ------- 2 1.0 5.0 17 17
- 0.894267 3 5 cbr 400 ------- 2 1.0 5.0 17 17
r 0.8956 1 2 cbr 400 ------- 2 1.0 5.0 24 24
+ 0.8956 2 3 cbr 400 ------- 2 1.0 5.0 24 24
- 0.8956 2 3 cbr 400 ------- 2 1.0 5.0 24 24
+ 0.9 1 2 cbr 400 ------- 2 1.0 5.0 25 25
- 0.9 1 2 cbr 400 ------- 2 1.0 5.0 25 25
r 0.908667 3 5 cbr 400 ------- 2 1.0 5.0 15 15
r 0.910267 2 3 cbr 400 ------- 2 1.0 5.0 18 18
+ 0.910267 3 5 cbr 400 ------- 2 1.0 5.0 18 18
- 0.910267 3 5 cbr 400 ------- 2 1.0 5.0 18 18
r 0.9116 1 2 cbr 400 ------- 2 1.0 5.0 25 25
+ 0.9116 2 3 cbr 400 ------- 2 1.0 5.0 25 25
- 0.9116 2 3 cbr 400 ------- 2 1.0 5.0 25 25
+ 0.916 1 2 cbr 400 ------- 2 1.0 5.0 26 26
- 0.916 1 2 cbr 400 ------- 2 1.0 5.0 26 26
r 0.924667 3 5 cbr 400 ------- 2 1.0 5.0 16 16
r 0.926267 2 3 cbr 400 ------- 2 1.0 5.0 19 19
+ 0.926267 3 5 cbr 400 ------- 2 1.0 5.0 19 19
- 0.926267 3 5 cbr 400 ------- 2 1.0 5.0 19 19
r 0.9276 1 2 cbr 400 ------- 2 1.0 5.0 26 26
+ 0.9276 2 3 cbr 400 ------- 2 1.0 5.0 26 26
- 0.9276 2 3 cbr 400 ------- 2 1.0 5.0 26 26
+ 0.932 1 2 cbr 400 ------- 2 1.0 5.0 27 27
- 0.932 1 2 cbr 400 ------- 2 1.0 5.0 27 27
r 0.940667 3 5 cbr 400 ------- 2 1.0 5.0 17 17
r 0.942267 2 3 cbr 400 ------- 2 1.0 5.0 20 20
+ 0.942267 3 5 cbr 400 ------- 2 1.0 5.0 20 20
- 0.942267 3 5 cbr 400 ------- 2 1.0 5.0 20 20
r 0.9436 1 2 cbr 400 ------- 2 1.0 5.0 27 27
+ 0.9436 2 3 cbr 400 ------- 2 1.0 5.0 27 27
- 0.9436 2 3 cbr 400 ------- 2 1.0 5.0 27 27
+ 0.948 1 2 cbr 400 ------- 2 1.0 5.0 28 28
- 0.948 1 2 cbr 400 ------- 2 1.0 5.0 28 28
r 0.956667 3 5 cbr 400 ------- 2 1.0 5.0 18 18
r 0.958267 2 3 cbr 400 ------- 2 1.0 5.0 21 21
+ 0.958267 3 5 cbr 400 ------- 2 1.0 5.0 21 21
- 0.958267 3 5 cbr 400 ------- 2 1.0 5.0 21 21
r 0.9596 1 2 cbr 400 ------- 2 1.0 5.0 28 28
+ 0.9596 2 3 cbr 400 ------- 2 1.0 5.0 28 28
- 0.9596 2 3 cbr 400 ------- 2 1.0 5.0 28 28
+ 0.964 1 2 cbr 400 ------- 2 1.0 5.0 29 29
- 0.964 1 2 cbr 400 ------- 2 1.0 5.0 29 29
r 0.972667 3 5 cbr 400 ------- 2 1.0 5.0 19 19
r 0.974267 2 3 cbr 400 ------- 2 1.0 5.0 22 22
+ 0.974267 3 5 cbr 400 ------- 2 1.0 5.0 22 22
- 0.974267 3 5 cbr 400 ------- 2 1.0 5.0 22 22
r 0.9756 1 2 cbr 400 ------- 2 1.0 5.0 29 29
+ 0.9756 2 3 cbr 400 ------- 2 1.0 5.0 29 29
- 0.9756 2 3 cbr 400 ------- 2 1.0 5.0 29 29
+ 0.98 1 2 cbr 400 ------- 2 1.0 5.0 30 30
- 0.98 1 2 cbr 400 ------- 2 1.0 5.0 30 30
r 0.988667 3 5 cbr 400 ------- 2 1.0 5.0 20 20
r 0.990267 2 3 cbr 400 ------- 2 1.0 5.0 23 23
+ 0.990267 3 5 cbr 400 ------- 2 1.0 5.0 23 23
- 0.990267 3 5 cbr 400 ------- 2 1.0 5.0 23 23
r 0.9916 1 2 cbr 400 ------- 2 1.0 5.0 30 30
+ 0.9916 2 3 cbr 400 ------- 2 1.0 5.0 30 30
- 0.9916 2 3 cbr 400 ------- 2 1.0 5.0 30 30
+ 0.996 1 2 cbr 400 ------- 2 1.0 5.0 31 31
- 0.996 1 2 cbr 400 ------- 2 1.0 5.0 31 31
+ 1 0 2 tcp 40 ------- 1 0.0 4.0 0 32
- 1 0 2 tcp 40 ------- 1 0.0 4.0 0 32
r 1.004667 3 5 cbr 400 ------- 2 1.0 5.0 21 21
r 1.006267 2 3 cbr 400 ------- 2 1.0 5.0 24 24
+ 1.006267 3 5 cbr 400 ------- 2 1.0 5.0 24 24
- 1.006267 3 5 cbr 400 ------- 2 1.0 5.0 24 24
r 1.0076 1 2 cbr 400 ------- 2 1.0 5.0 31 31
+ 1.0076 2 3 cbr 400 ------- 2 1.0 5.0 31 31
- 1.0076 2 3 cbr 400 ------- 2 1.0 5.0 31 31
r 1.01016 0 2 tcp 40 ------- 1 0.0 4.0 0 32
+ 1.01016 2 3 tcp 40 ------- 1 0.0 4.0 0 32
+ 1.012 1 2 cbr 400 ------- 2 1.0 5.0 32 33
- 1.012 1 2 cbr 400 ------- 2 1.0 5.0 32 33
- 1.018267 2 3 tcp 40 ------- 1 0.0 4.0 0 32
r 1.020667 3 5 cbr 400 ------- 2 1.0 5.0 22 22
r 1.022267 2 3 cbr 400 ------- 2 1.0 5.0 25 25
+ 1.022267 3 5 cbr 400 ------- 2 1.0 5.0 25 25
- 1.022267 3 5 cbr 400 ------- 2 1.0 5.0 25 25
r 1.0236 1 2 cbr 400 ------- 2 1.0 5.0 32 33
+ 1.0236 2 3 cbr 400 ------- 2 1.0 5.0 32 33
- 1.0236 2 3 cbr 400 ------- 2 1.0 5.0 32 33
+ 1.028 1 2 cbr 400 ------- 2 1.0 5.0 33 34
- 1.028 1 2 cbr 400 ------- 2 1.0 5.0 33 34
r 1.036667 3 5 cbr 400 ------- 2 1.0 5.0 23 23
r 1.038267 2 3 cbr 400 ------- 2 1.0 5.0 26 26
+ 1.038267 3 5 cbr 400 ------- 2 1.0 5.0 26 26
- 1.038267 3 5 cbr 400 ------- 2 1.0 5.0 26 26
r 1.0396 1 2 cbr 400 ------- 2 1.0 5.0 33 34
+ 1.0396 2 3 cbr 400 ------- 2 1.0 5.0 33 34
- 1.0396 2 3 cbr 400 ------- 2 1.0 5.0 33 34
+ 1.044 1 2 cbr 400 ------- 2 1.0 5.0 34 35
- 1.044 1 2 cbr 400 ------- 2 1.0 5.0 34 35
r 1.052667 3 5 cbr 400 ------- 2 1.0 5.0 24 24
r 1.054267 2 3 cbr 400 ------- 2 1.0 5.0 27 27
+ 1.054267 3 5 cbr 400 ------- 2 1.0 5.0 27 27
- 1.054267 3 5 cbr 400 ------- 2 1.0 5.0 27 27
r 1.0556 1 2 cbr 400 ------- 2 1.0 5.0 34 35
+ 1.0556 2 3 cbr 400 ------- 2 1.0 5.0 34 35
- 1.0556 2 3 cbr 400 ------- 2 1.0 5.0 34 35
+ 1.06 1 2 cbr 400 ------- 2 1.0 5.0 35 36
- 1.06 1 2 cbr 400 ------- 2 1.0 5.0 35 36
r 1.068667 3 5 cbr 400 ------- 2 1.0 5.0 25 25
r 1.070267 2 3 cbr 400 ------- 2 1.0 5.0 28 28
+ 1.070267 3 5 cbr 400 ------- 2 1.0 5.0 28 28
- 1.070267 3 5 cbr 400 ------- 2 1.0 5.0 28 28
r 1.0716 1 2 cbr 400 ------- 2 1.0 5.0 35 36
+ 1.0716 2 3 cbr 400 ------- 2 1.0 5.0 35 36
- 1.0716 2 3 cbr 400 ------- 2 1.0 5.0 35 36
+ 1.076 1 2 cbr 400 ------- 2 1.0 5.0 36 37
- 1.076 1 2 cbr 400 ------- 2 1.0 5.0 36 37
r 1.084667 3 5 cbr 400 ------- 2 1.0 5.0 26 26
r 1.086267 2 3 cbr 400 ------- 2 1.0 5.0 29 29
+ 1.086267 3 5 cbr 400 ------- 2 1.0 5.0 29 29
- 1.086267 3 5 cbr 400 ------- 2 1.0 5.0 29 29
r 1.0876 1 2 cbr 400 ------- 2 1.0 5.0 36 37
+ 1.0876 2 3 cbr 400 ------- 2 1.0 5.0 36 37
- 1.0876 2 3 cbr 400 ------- 2 1.0 5.0 36 37
+ 1.092 1 2 cbr 400 ------- 2 1.0 5.0 37 38
- 1.092 1 2 cbr 400 ------- 2 1.0 5.0 37 38
r 1.100667 3 5 cbr 400 ------- 2 1.0 5.0 27 27
r 1.102267 2 3 cbr 400 ------- 2 1.0 5.0 30 30
+ 1.102267 3 5 cbr 400 ------- 2 1.0 5.0 30 30
- 1.102267 3 5 cbr 400 ------- 2 1.0 5.0 30 30
r 1.1036 1 2 cbr 400 ------- 2 1.0 5.0 37 38
+ 1.1036 2 3 cbr 400 ------- 2 1.0 5.0 37 38
- 1.1036 2 3 cbr 400 ------- 2 1.0 5.0 37 38
+ 1.108 1 2 cbr 400 ------- 2 1.0 5.0 38 39
- 1.108 1 2 cbr 400 ------- 2 1.0 5.0 38 39
r 1.116667 3 5 cbr 400 ------- 2 1.0 5.0 28 28
r 1.118267 2 3 cbr 400 ------- 2 1.0 5.0 31 31
+ 1.118267 3 5 cbr 400 ------- 2 1.0 5.0 31 31
- 1.118267 3 5 cbr 400 ------- 2 1.0 5.0 31 31
r 1.119333 2 3 tcp 40 ------- 1 0.0 4.0 0 32
+ 1.119333 3 4 tcp 40 ------- 1 0.0 4.0 0 32
- 1.119333 3 4 tcp 40 ------- 1 0.0 4.0 0 32
r 1.1196 1 2 cbr 400 ------- 2 1.0 5.0 38 39
+ 1.1196 2 3 cbr 400 ------- 2 1.0 5.0 38 39
- 1.1196 2 3 cbr 400 ------- 2 1.0 5.0 38 39
+ 1.124 1 2 cbr 400 ------- 2 1.0 5.0 39 40
- 1.124 1 2 cbr 400 ------- 2 1.0 5.0 39 40
r 1.132667 3 5 cbr 400 ------- 2 1.0 5.0 29 29
r 1.134267 2 3 cbr 400 ------- 2 1.0 5.0 32 33
+ 1.134267 3 5 cbr 400 ------- 2 1.0 5.0 32 33
- 1.134267 3 5 cbr 400 ------- 2 1.0 5.0 32 33
r 1.1356 1 2 cbr 400 ------- 2 1.0 5.0 39 40
+ 1.1356 2 3 cbr 400 ------- 2 1.0 5.0 39 40
- 1.1356 2 3 cbr 400 ------- 2 1.0 5.0 39 40
+ 1.14 1 2 cbr 400 ------- 2 1.0 5.0 40 41
- 1.14 1 2 cbr 400 ------- 2 1.0 5.0 40 41
r 1.148667 3 5 cbr 400 ------- 2 1.0 5.0 30 30
r 1.150267 2 3 cbr 400 ------- 2 1.0 5.0 33 34
+ 1.150267 3 5 cbr 400 ------- 2 1.0 5.0 33 34
- 1.150267 3 5 cbr 400 ------- 2 1.0 5.0 33 34
r 1.1516 1 2 cbr 400 ------- 2 1.0 5.0 40 41
+ 1.1516 2 3 cbr 400 ------- 2 1.0 5.0 40 41
- 1.1516 2 3 cbr 400 ------- 2 1.0 5.0 40 41
+ 1.156 1 2 cbr 400 ------- 2 1.0 5.0 41 42
- 1.156 1 2 cbr 400 ------- 2 1.0 5.0 41 42
r 1.159973 3 4 tcp 40 ------- 1 0.0 4.0 0 32
+ 1.159973 4 3 ack 40 ------- 1 4.0 0.0 0 43
- 1.159973 4 3 ack 40 ------- 1 4.0 0.0 0 43
r 1.164667 3 5 cbr 400 ------- 2 1.0 5.0 31 31
r 1.166267 2 3 cbr 400 ------- 2 1.0 5.0 34 35
+ 1.166267 3 5 cbr 400 ------- 2 1.0 5.0 34 35
- 1.166267 3 5 cbr 400 ------- 2 1.0 5.0 34 35
r 1.1676 1 2 cbr 400 ------- 2 1.0 5.0 41 42
+ 1.1676 2 3 cbr 400 ------- 2 1.0 5.0 41 42
- 1.1676 2 3 cbr 400 ------- 2 1.0 5.0 41 42
+ 1.172 1 2 cbr 400 ------- 2 1.0 5.0 42 44
- 1.172 1 2 cbr 400 ------- 2 1.0 5.0 42 44
r 1.180667 3 5 cbr 400 ------- 2 1.0 5.0 32 33
r 1.182267 2 3 cbr 400 ------- 2 1.0 5.0 35 36
+ 1.182267 3 5 cbr 400 ------- 2 1.0 5.0 35 36
- 1.182267 3 5 cbr 400 ------- 2 1.0 5.0 35 36
r 1.1836 1 2 cbr 400 ------- 2 1.0 5.0 42 44
+ 1.1836 2 3 cbr 400 ------- 2 1.0 5.0 42 44
- 1.1836 2 3 cbr 400 ------- 2 1.0 5.0 42 44
+ 1.188 1 2 cbr 400 ------- 2 1.0 5.0 43 45
- 1.188 1 2 cbr 400 ------- 2 1.0 5.0 43 45
r 1.196667 3 5 cbr 400 ------- 2 1.0 5.0 33 34
r 1.198267 2 3 cbr 400 ------- 2 1.0 5.0 36 37
+ 1.198267 3 5 cbr 400 ------- 2 1.0 5.0 36 37
- 1.198267 3 5 cbr 400 ------- 2 1.0 5.0 36 37
r 1.1996 1 2 cbr 400 ------- 2 1.0 5.0 43 45
+ 1.1996 2 3 cbr 400 ------- 2 1.0 5.0 43 45
- 1.1996 2 3 cbr 400 ------- 2 1.0 5.0 43 45
r 1.200613 4 3 ack 40 ------- 1 4.0 0.0 0 43
+ 1.200613 3 2 ack 40 ------- 1 4.0 0.0 0 43
- 1.200613 3 2 ack 40 ------- 1 4.0 0.0 0 43
+ 1.204 1 2 cbr 400 ------- 2 1.0 5.0 44 46
- 1.204 1 2 cbr 400 ------- 2 1.0 5.0 44 46
r 1.212667 3 5 cbr 400 ------- 2 1.0 5.0 34 35
r 1.214267 2 3 cbr 400 ------- 2 1.0 5.0 37 38
+ 1.214267 3 5 cbr 400 ------- 2 1.0 5.0 37 38
- 1.214267 3 5 cbr 400 ------- 2 1.0 5.0 37 38
r 1.2156 1 2 cbr 400 ------- 2 1.0 5.0 44 46
+ 1.2156 2 3 cbr 400 ------- 2 1.0 5.0 44 46
- 1.2156 2 3 cbr 400 ------- 2 1.0 5.0 44 46
+ 1.22 1 2 cbr 400 ------- 2 1.0 5.0 45 47
- 1.22 1 2 cbr 400 ------- 2 1.0 5.0 45 47
r 1.228667 3 5 cbr 400 ------- 2 1.0 5.0 35 36
r 1.230267 2 3 cbr 400 ------- 2 1.0 5.0 38 39
+ 1.230267 3 5 cbr 400 ------- 2 1.0 5.0 38 39
- 1.230267 3 5 cbr 400 ------- 2 1.0 5.0 38 39
r 1.2316 1 2 cbr 400 ------- 2 1.0 5.0 45 47
+ 1.2316 2 3 cbr 400 ------- 2 1.0 5.0 45 47
- 1.2316 2 3 cbr 400 ------- 2 1.0 5.0 45 47
+ 1.236 1 2 cbr 400 ------- 2 1.0 5.0 46 48
- 1.236 1 2 cbr 400 ------- 2 1.0 5.0 46 48
r 1.244667 3 5 cbr 400 ------- 2 1.0 5.0 36 37
r 1.246267 2 3 cbr 400 ------- 2 1.0 5.0 39 40
+ 1.246267 3 5 cbr 400 ------- 2 1.0 5.0 39 40
- 1.246267 3 5 cbr 400 ------- 2 1.0 5.0 39 40
r 1.2476 1 2 cbr 400 ------- 2 1.0 5.0 46 48
+ 1.2476 2 3 cbr 400 ------- 2 1.0 5.0 46 48
- 1.2476 2 3 cbr 400 ------- 2 1.0 5.0 46 48
+ 1.252 1 2 cbr 400 ------- 2 1.0 5.0 47 49
- 1.252 1 2 cbr 400 ------- 2 1.0 5.0 47 49
r 1.260667 3 5 cbr 400 ------- 2 1.0 5.0 37 38
r 1.262267 2 3 cbr 400 ------- 2 1.0 5.0 40 41
+ 1.262267 3 5 cbr 400 ------- 2 1.0 5.0 40 41
- 1.262267 3 5 cbr 400 ------- 2 1.0 5.0 40 41
r 1.2636 1 2 cbr 400 ------- 2 1.0 5.0 47 49
+ 1.2636 2 3 cbr 400 ------- 2 1.0 5.0 47 49
- 1.2636 2 3 cbr 400 ------- 2 1.0 5.0 47 49
+ 1.268 1 2 cbr 400 ------- 2 1.0 5.0 48 50
- 1.268 1 2 cbr 400 ------- 2 1.0 5.0 48 50
r 1.276667 3 5 cbr 400 ------- 2 1.0 5.0 38 39
r 1.278267 2 3 cbr 400 ------- 2 1.0 5.0 41 42
+ 1.278267 3 5 cbr 400 ------- 2 1.0 5.0 41 42
- 1.278267 3 5 cbr 400 ------- 2 1.0 5.0 41 42
r 1.2796 1 2 cbr 400 ------- 2 1.0 5.0 48 50
+ 1.2796 2 3 cbr 400 ------- 2 1.0 5.0 48 50
- 1.2796 2 3 cbr 400 ------- 2 1.0 5.0 48 50
+ 1.284 1 2 cbr 400 ------- 2 1.0 5.0 49 51
- 1.284 1 2 cbr 400 ------- 2 1.0 5.0 49 51
r 1.292667 3 5 cbr 400 ------- 2 1.0 5.0 39 40
r 1.294267 2 3 cbr 400 ------- 2 1.0 5.0 42 44
+ 1.294267 3 5 cbr 400 ------- 2 1.0 5.0 42 44
- 1.294267 3 5 cbr 400 ------- 2 1.0 5.0 42 44
r 1.2956 1 2 cbr 400 ------- 2 1.0 5.0 49 51
+ 1.2956 2 3 cbr 400 ------- 2 1.0 5.0 49 51
- 1.2956 2 3 cbr 400 ------- 2 1.0 5.0 49 51
+ 1.3 1 2 cbr 400 ------- 2 1.0 5.0 50 52
- 1.3 1 2 cbr 400 ------- 2 1.0 5.0 50 52
r 1.30168 3 2 ack 40 ------- 1 4.0 0.0 0 43
+ 1.30168 2 0 ack 40 ------- 1 4.0 0.0 0 43
- 1.30168 2 0 ack 40 ------- 1 4.0 0.0 0 43
r 1.308667 3 5 cbr 400 ------- 2 1.0 5.0 40 41
r 1.310267 2 3 cbr 400 ------- 2 1.0 5.0 43 45
+ 1.310267 3 5 cbr 400 ------- 2 1.0 5.0 43 45
- 1.310267 3 5 cbr 400 ------- 2 1.0 5.0 43 45
r 1.3116 1 2 cbr 400 ------- 2 1.0 5.0 50 52
+ 1.3116 2 3 cbr 400 ------- 2 1.0 5.0 50 52
- 1.3116 2 3 cbr 400 ------- 2 1.0 5.0 50 52
r 1.31184 2 0 ack 40 ------- 1 4.0 0.0 0 43
+ 1.31184 0 2 tcp 440 ------- 1 0.0 4.0 1 53
- 1.31184 0 2 tcp 440 ------- 1 0.0 4.0 1 53
+ 1.31184 0 2 tcp 440 ------- 1 0.0 4.0 2 54
- 1.3136 0 2 tcp 440 ------- 1 0.0 4.0 2 54
+ 1.316 1 2 cbr 400 ------- 2 1.0 5.0 51 55
- 1.316 1 2 cbr 400 ------- 2 1.0 5.0 51 55
r 1.3236 0 2 tcp 440 ------- 1 0.0 4.0 1 53
+ 1.3236 2 3 tcp 440 ------- 1 0.0 4.0 1 53
- 1.3236 2 3 tcp 440 ------- 1 0.0 4.0 1 53
r 1.324667 3 5 cbr 400 ------- 2 1.0 5.0 41 42
r 1.32536 0 2 tcp 440 ------- 1 0.0 4.0 2 54
+ 1.32536 2 3 tcp 440 ------- 1 0.0 4.0 2 54
r 1.326267 2 3 cbr 400 ------- 2 1.0 5.0 44 46
+ 1.326267 3 5 cbr 400 ------- 2 1.0 5.0 44 46
- 1.326267 3 5 cbr 400 ------- 2 1.0 5.0 44 46
r 1.3276 1 2 cbr 400 ------- 2 1.0 5.0 51 55
+ 1.3276 2 3 cbr 400 ------- 2 1.0 5.0 51 55
+ 1.332 1 2 cbr 400 ------- 2 1.0 5.0 52 56
- 1.332 1 2 cbr 400 ------- 2 1.0 5.0 52 56
- 1.335333 2 3 tcp 440 ------- 1 0.0 4.0 2 54
r 1.340667 3 5 cbr 400 ------- 2 1.0 5.0 42 44
r 1.342267 2 3 cbr 400 ------- 2 1.0 5.0 45 47
+ 1.342267 3 5 cbr 400 ------- 2 1.0 5.0 45 47
- 1.342267 3 5 cbr 400 ------- 2 1.0 5.0 45 47
r 1.3436 1 2 cbr 400 ------- 2 1.0 5.0 52 56
+ 1.3436 2 3 cbr 400 ------- 2 1.0 5.0 52 56
- 1.347067 2 3 cbr 400 ------- 2 1.0 5.0 51 55
+ 1.348 1 2 cbr 400 ------- 2 1.0 5.0 53 57
- 1.348 1 2 cbr 400 ------- 2 1.0 5.0 53 57
r 1.356667 3 5 cbr 400 ------- 2 1.0 5.0 43 45
- 1.357733 2 3 cbr 400 ------- 2 1.0 5.0 52 56
r 1.358267 2 3 cbr 400 ------- 2 1.0 5.0 46 48
+ 1.358267 3 5 cbr 400 ------- 2 1.0 5.0 46 48
- 1.358267 3 5 cbr 400 ------- 2 1.0 5.0 46 48
r 1.3596 1 2 cbr 400 ------- 2 1.0 5.0 53 57
+ 1.3596 2 3 cbr 400 ------- 2 1.0 5.0 53 57
+ 1.364 1 2 cbr 400 ------- 2 1.0 5.0 54 58
- 1.364 1 2 cbr 400 ------- 2 1.0 5.0 54 58
- 1.3684 2 3 cbr 400 ------- 2 1.0 5.0 53 57
r 1.372667 3 5 cbr 400 ------- 2 1.0 5.0 44 46
r 1.374267 2 3 cbr 400 ------- 2 1.0 5.0 47 49
+ 1.374267 3 5 cbr 400 ------- 2 1.0 5.0 47 49
- 1.374267 3 5 cbr 400 ------- 2 1.0 5.0 47 49
r 1.3756 1 2 cbr 400 ------- 2 1.0 5.0 54 58
+ 1.3756 2 3 cbr 400 ------- 2 1.0 5.0 54 58
- 1.379067 2 3 cbr 400 ------- 2 1.0 5.0 54 58
+ 1.38 1 2 cbr 400 ------- 2 1.0 5.0 55 59
- 1.38 1 2 cbr 400 ------- 2 1.0 5.0 55 59
r 1.388667 3 5 cbr 400 ------- 2 1.0 5.0 45 47
r 1.390267 2 3 cbr 400 ------- 2 1.0 5.0 48 50
+ 1.390267 3 5 cbr 400 ------- 2 1.0 5.0 48 50
- 1.390267 3 5 cbr 400 ------- 2 1.0 5.0 48 50
r 1.3916 1 2 cbr 400 ------- 2 1.0 5.0 55 59
+ 1.3916 2 3 cbr 400 ------- 2 1.0 5.0 55 59
- 1.3916 2 3 cbr 400 ------- 2 1.0 5.0 55 59
+ 1.396 1 2 cbr 400 ------- 2 1.0 5.0 56 60
- 1.396 1 2 cbr 400 ------- 2 1.0 5.0 56 60
r 1.404667 3 5 cbr 400 ------- 2 1.0 5.0 46 48
r 1.406267 2 3 cbr 400 ------- 2 1.0 5.0 49 51
+ 1.406267 3 5 cbr 400 ------- 2 1.0 5.0 49 51
- 1.406267 3 5 cbr 400 ------- 2 1.0 5.0 49 51
r 1.4076 1 2 cbr 400 ------- 2 1.0 5.0 56 60
+ 1.4076 2 3 cbr 400 ------- 2 1.0 5.0 56 60
- 1.4076 2 3 cbr 400 ------- 2 1.0 5.0 56 60
+ 1.412 1 2 cbr 400 ------- 2 1.0 5.0 57 61
- 1.412 1 2 cbr 400 ------- 2 1.0 5.0 57 61
r 1.420667 3 5 cbr 400 ------- 2 1.0 5.0 47 49
r 1.422267 2 3 cbr 400 ------- 2 1.0 5.0 50 52
+ 1.422267 3 5 cbr 400 ------- 2 1.0 5.0 50 52
- 1.422267 3 5 cbr 400 ------- 2 1.0 5.0 50 52
r 1.4236 1 2 cbr 400 ------- 2 1.0 5.0 57 61
+ 1.4236 2 3 cbr 400 ------- 2 1.0 5.0 57 61
- 1.4236 2 3 cbr 400 ------- 2 1.0 5.0 57 61
+ 1.428 1 2 cbr 400 ------- 2 1.0 5.0 58 62
- 1.428 1 2 cbr 400 ------- 2 1.0 5.0 58 62
r 1.435333 2 3 tcp 440 ------- 1 0.0 4.0 1 53
+ 1.435333 3 4 tcp 440 ------- 1 0.0 4.0 1 53
- 1.435333 3 4 tcp 440 ------- 1 0.0 4.0 1 53
r 1.436667 3 5 cbr 400 ------- 2 1.0 5.0 48 50
r 1.4396 1 2 cbr 400 ------- 2 1.0 5.0 58 62
+ 1.4396 2 3 cbr 400 ------- 2 1.0 5.0 58 62
- 1.4396 2 3 cbr 400 ------- 2 1.0 5.0 58 62
+ 1.444 1 2 cbr 400 ------- 2 1.0 5.0 59 63
- 1.444 1 2 cbr 400 ------- 2 1.0 5.0 59 63
r 1.447067 2 3 tcp 440 ------- 1 0.0 4.0 2 54
+ 1.447067 3 4 tcp 440 ------- 1 0.0 4.0 2 54
- 1.447067 3 4 tcp 440 ------- 1 0.0 4.0 2 54
r 1.452667 3 5 cbr 400 ------- 2 1.0 5.0 49 51
r 1.4556 1 2 cbr 400 ------- 2 1.0 5.0 59 63
+ 1.4556 2 3 cbr 400 ------- 2 1.0 5.0 59 63
- 1.4556 2 3 cbr 400 ------- 2 1.0 5.0 59 63
r 1.457733 2 3 cbr 400 ------- 2 1.0 5.0 51 55
+ 1.457733 3 5 cbr 400 ------- 2 1.0 5.0 51 55
- 1.457733 3 5 cbr 400 ------- 2 1.0 5.0 51 55
+ 1.46 1 2 cbr 400 ------- 2 1.0 5.0 60 64
- 1.46 1 2 cbr 400 ------- 2 1.0 5.0 60 64
r 1.4684 2 3 cbr 400 ------- 2 1.0 5.0 52 56
+ 1.4684 3 5 cbr 400 ------- 2 1.0 5.0 52 56
- 1.4684 3 5 cbr 400 ------- 2 1.0 5.0 52 56
r 1.468667 3 5 cbr 400 ------- 2 1.0 5.0 50 52
r 1.4716 1 2 cbr 400 ------- 2 1.0 5.0 60 64
+ 1.4716 2 3 cbr 400 ------- 2 1.0 5.0 60 64
- 1.4716 2 3 cbr 400 ------- 2 1.0 5.0 60 64
+ 1.476 1 2 cbr 400 ------- 2 1.0 5.0 61 65
- 1.476 1 2 cbr 400 ------- 2 1.0 5.0 61 65
r 1.479067 2 3 cbr 400 ------- 2 1.0 5.0 53 57
+ 1.479067 3 5 cbr 400 ------- 2 1.0 5.0 53 57
- 1.479067 3 5 cbr 400 ------- 2 1.0 5.0 53 57
r 1.482373 3 4 tcp 440 ------- 1 0.0 4.0 1 53
+ 1.482373 4 3 ack 40 ------- 1 4.0 0.0 1 66
- 1.482373 4 3 ack 40 ------- 1 4.0 0.0 1 66
r 1.4876 1 2 cbr 400 ------- 2 1.0 5.0 61 65
+ 1.4876 2 3 cbr 400 ------- 2 1.0 5.0 61 65
- 1.4876 2 3 cbr 400 ------- 2 1.0 5.0 61 65
r 1.489733 2 3 cbr 400 ------- 2 1.0 5.0 54 58
+ 1.489733 3 5 cbr 400 ------- 2 1.0 5.0 54 58
- 1.489733 3 5 cbr 400 ------- 2 1.0 5.0 54 58
+ 1.492 1 2 cbr 400 ------- 2 1.0 5.0 62 67
- 1.492 1 2 cbr 400 ------- 2 1.0 5.0 62 67
r 1.494107 3 4 tcp 440 ------- 1 0.0 4.0 2 54
+ 1.494107 4 3 ack 40 ------- 1 4.0 0.0 2 68
- 1.494107 4 3 ack 40 ------- 1 4.0 0.0 2 68
r 1.502267 2 3 cbr 400 ------- 2 1.0 5.0 55 59
+ 1.502267 3 5 cbr 400 ------- 2 1.0 5.0 55 59
- 1.502267 3 5 cbr 400 ------- 2 1.0 5.0 55 59
r 1.5036 1 2 cbr 400 ------- 2 1.0 5.0 62 67
+ 1.5036 2 3 cbr 400 ------- 2 1.0 5.0 62 67
- 1.5036 2 3 cbr 400 ------- 2 1.0 5.0 62 67
r 1.504133 3 5 cbr 400 ------- 2 1.0 5.0 51 55
+ 1.508 1 2 cbr 400 ------- 2 1.0 5.0 63 69
- 1.508 1 2 cbr 400 ------- 2 1.0 5.0 63 69
r 1.5148 3 5 cbr 400 ------- 2 1.0 5.0 52 56
r 1.518267 2 3 cbr 400 ------- 2 1.0 5.0 56 60
+ 1.518267 3 5 cbr 400 ------- 2 1.0 5.0 56 60
- 1.518267 3 5 cbr 400 ------- 2 1.0 5.0 56 60
r 1.5196 1 2 cbr 400 ------- 2 1.0 5.0 63 69
+ 1.5196 2 3 cbr 400 ------- 2 1.0 5.0 63 69
- 1.5196 2 3 cbr 400 ------- 2 1.0 5.0 63 69
r 1.523013 4 3 ack 40 ------- 1 4.0 0.0 1 66
+ 1.523013 3 2 ack 40 ------- 1 4.0 0.0 1 66
- 1.523013 3 2 ack 40 ------- 1 4.0 0.0 1 66
+ 1.524 1 2 cbr 400 ------- 2 1.0 5.0 64 70
- 1.524 1 2 cbr 400 ------- 2 1.0 5.0 64 70
r 1.525467 3 5 cbr 400 ------- 2 1.0 5.0 53 57
r 1.534267 2 3 cbr 400 ------- 2 1.0 5.0 57 61
+ 1.534267 3 5 cbr 400 ------- 2 1.0 5.0 57 61
- 1.534267 3 5 cbr 400 ------- 2 1.0 5.0 57 61
r 1.534747 4 3 ack 40 ------- 1 4.0 0.0 2 68
+ 1.534747 3 2 ack 40 ------- 1 4.0 0.0 2 68
- 1.534747 3 2 ack 40 ------- 1 4.0 0.0 2 68
r 1.5356 1 2 cbr 400 ------- 2 1.0 5.0 64 70
+ 1.5356 2 3 cbr 400 ------- 2 1.0 5.0 64 70
- 1.5356 2 3 cbr 400 ------- 2 1.0 5.0 64 70
r 1.536133 3 5 cbr 400 ------- 2 1.0 5.0 54 58
+ 1.54 1 2 cbr 400 ------- 2 1.0 5.0 65 71
- 1.54 1 2 cbr 400 ------- 2 1.0 5.0 65 71
r 1.548667 3 5 cbr 400 ------- 2 1.0 5.0 55 59
r 1.550267 2 3 cbr 400 ------- 2 1.0 5.0 58 62
+ 1.550267 3 5 cbr 400 ------- 2 1.0 5.0 58 62
- 1.550267 3 5 cbr 400 ------- 2 1.0 5.0 58 62
r 1.5516 1 2 cbr 400 ------- 2 1.0 5.0 65 71
+ 1.5516 2 3 cbr 400 ------- 2 1.0 5.0 65 71
- 1.5516 2 3 cbr 400 ------- 2 1.0 5.0 65 71
+ 1.556 1 2 cbr 400 ------- 2 1.0 5.0 66 72
- 1.556 1 2 cbr 400 ------- 2 1.0 5.0 66 72
r 1.564667 3 5 cbr 400 ------- 2 1.0 5.0 56 60
r 1.566267 2 3 cbr 400 ------- 2 1.0 5.0 59 63
+ 1.566267 3 5 cbr 400 ------- 2 1.0 5.0 59 63
- 1.566267 3 5 cbr 400 ------- 2 1.0 5.0 59 63
r 1.5676 1 2 cbr 400 ------- 2 1.0 5.0 66 72
+ 1.5676 2 3 cbr 400 ------- 2 1.0 5.0 66 72
- 1.5676 2 3 cbr 400 ------- 2 1.0 5.0 66 72
+ 1.572 1 2 cbr 400 ------- 2 1.0 5.0 67 73
- 1.572 1 2 cbr 400 ------- 2 1.0 5.0 67 73
r 1.580667 3 5 cbr 400 ------- 2 1.0 5.0 57 61
r 1.582267 2 3 cbr 400 ------- 2 1.0 5.0 60 64
+ 1.582267 3 5 cbr 400 ------- 2 1.0 5.0 60 64
- 1.582267 3 5 cbr 400 ------- 2 1.0 5.0 60 64
r 1.5836 1 2 cbr 400 ------- 2 1.0 5.0 67 73
+ 1.5836 2 3 cbr 400 ------- 2 1.0 5.0 67 73
- 1.5836 2 3 cbr 400 ------- 2 1.0 5.0 67 73
+ 1.588 1 2 cbr 400 ------- 2 1.0 5.0 68 74
- 1.588 1 2 cbr 400 ------- 2 1.0 5.0 68 74
r 1.596667 3 5 cbr 400 ------- 2 1.0 5.0 58 62
r 1.598267 2 3 cbr 400 ------- 2 1.0 5.0 61 65
+ 1.598267 3 5 cbr 400 ------- 2 1.0 5.0 61 65
- 1.598267 3 5 cbr 400 ------- 2 1.0 5.0 61 65
r 1.5996 1 2 cbr 400 ------- 2 1.0 5.0 68 74
+ 1.5996 2 3 cbr 400 ------- 2 1.0 5.0 68 74
- 1.5996 2 3 cbr 400 ------- 2 1.0 5.0 68 74
+ 1.604 1 2 cbr 400 ------- 2 1.0 5.0 69 75
- 1.604 1 2 cbr 400 ------- 2 1.0 5.0 69 75
r 1.612667 3 5 cbr 400 ------- 2 1.0 5.0 59 63
r 1.614267 2 3 cbr 400 ------- 2 1.0 5.0 62 67
+ 1.614267 3 5 cbr 400 ------- 2 1.0 5.0 62 67
- 1.614267 3 5 cbr 400 ------- 2 1.0 5.0 62 67
r 1.6156 1 2 cbr 400 ------- 2 1.0 5.0 69 75
+ 1.6156 2 3 cbr 400 ------- 2 1.0 5.0 69 75
- 1.6156 2 3 cbr 400 ------- 2 1.0 5.0 69 75
+ 1.62 1 2 cbr 400 ------- 2 1.0 5.0 70 76
- 1.62 1 2 cbr 400 ------- 2 1.0 5.0 70 76
r 1.62408 3 2 ack 40 ------- 1 4.0 0.0 1 66
+ 1.62408 2 0 ack 40 ------- 1 4.0 0.0 1 66
- 1.62408 2 0 ack 40 ------- 1 4.0 0.0 1 66
r 1.628667 3 5 cbr 400 ------- 2 1.0 5.0 60 64
r 1.630267 2 3 cbr 400 ------- 2 1.0 5.0 63 69
+ 1.630267 3 5 cbr 400 ------- 2 1.0 5.0 63 69
- 1.630267 3 5 cbr 400 ------- 2 1.0 5.0 63 69
r 1.6316 1 2 cbr 400 ------- 2 1.0 5.0 70 76
+ 1.6316 2 3 cbr 400 ------- 2 1.0 5.0 70 76
- 1.6316 2 3 cbr 400 ------- 2 1.0 5.0 70 76
r 1.63424 2 0 ack 40 ------- 1 4.0 0.0 1 66
+ 1.63424 0 2 tcp 440 ------- 1 0.0 4.0 3 77
- 1.63424 0 2 tcp 440 ------- 1 0.0 4.0 3 77
+ 1.63424 0 2 tcp 440 ------- 1 0.0 4.0 4 78
r 1.635813 3 2 ack 40 ------- 1 4.0 0.0 2 68
+ 1.635813 2 0 ack 40 ------- 1 4.0 0.0 2 68