+ 0.00017 0 1 rtProtoDV 4 ------- 0 0.2 1.1 -1 0
- 0.00017 0 1 rtProtoDV 4 ------- 0 0.2 1.1 -1 0
+ 0.00017 0 3 rtProtoDV 4 ------- 0 0.2 3.1 -1 1
- 0.00017 0 3 rtProtoDV 4 ------- 0 0.2 3.1 -1 1
+ 0.007102 2 1 rtProtoDV 4 ------- 0 2.2 1.1 -1 2
- 0.007102 2 1 rtProtoDV 4 ------- 0 2.2 1.1 -1 2
+ 0.007102 2 3 rtProtoDV 4 ------- 0 2.2 3.1 -1 3
- 0.007102 2 3 rtProtoDV 4 ------- 0 2.2 3.1 -1 3
r 0.010202 0 1 rtProtoDV 4 ------- 0 0.2 1.1 -1 0
+ 0.010202 1 0 rtProtoDV 4 ------- 0 1.1 0.2 -1 4
- 0.010202 1 0 rtProtoDV 4 ------- 0 1.1 0.2 -1 4
+ 0.010202 1 2 rtProtoDV 4 ------- 0 1.1 2.2 -1 5
- 0.010202 1 2 rtProtoDV 4 ------- 0 1.1 2.2 -1 5
r 0.010202 0 3 rtProtoDV 4 ------- 0 0.2 3.1 -1 1
+ 0.010202 3 0 rtProtoDV 4 ------- 0 3.1 0.2 -1 6
- 0.010202 3 0 rtProtoDV 4 ------- 0 3.1 0.2 -1 6
+ 0.010202 3 2 rtProtoDV 4 ------- 0 3.1 2.2 -1 7
- 0.010202 3 2 rtProtoDV 4 ------- 0 3.1 2.2 -1 7
r 0.017134 2 1 rtProtoDV 4 ------- 0 2.2 1.1 -1 2
r 0.017134 2 3 rtProtoDV 4 ------- 0 2.2 3.1 -1 3
r 0.020234 1 0 rtProtoDV 4 ------- 0 1.1 0.2 -1 4
+ 0.020234 0 1 rtProtoDV 4 ------- 0 0.2 1.1 -1 8
- 0.020234 0 1 rtProtoDV 4 ------- 0 0.2 1.1 -1 8
+ 0.020234 0 3 rtProtoDV 4 ------- 0 0.2 3.1 -1 9
- 0.020234 0 3 rtProtoDV 4 ------- 0 0.2 3.1 -1 9
r 0.020234 1 2 rtProtoDV 4 ------- 0 1.1 2.2 -1 5
+ 0.020234 2 1 rtProtoDV 4 ------- 0 2.2 1.1 -1 10
- 0.020234 2 1 rtProtoDV 4 ------- 0 2.2 1.1 -1 10
+ 0.020234 2 3 rtProtoDV 4 ------- 0 2.2 3.1 -1 11
- 0.020234 2 3 rtProtoDV 4 ------- 0 2.2 3.1 -1 11
r 0.020234 3 0 rtProtoDV 4 ------- 0 3.1 0.2 -1 6
r 0.020234 3 2 rtProtoDV 4 ------- 0 3.1 2.2 -1 7
r 0.030266 0 1 rtProtoDV 4 ------- 0 0.2 1.1 -1 8
r 0.030266 0 3 rtProtoDV 4 ------- 0 0.2 3.1 -1 9
r 0.030266 2 1 rtProtoDV 4 ------- 0 2.2 1.1 -1 10
r 0.030266 2 3 rtProtoDV 4 ------- 0 2.2 3.1 -1 11
+ 0.044061 3 0 rtProtoDV 4 ------- 0 3.1 0.2 -1 12
- 0.044061 3 0 rtProtoDV 4 ------- 0 3.1 0.2 -1 12
+ 0.044061 3 2 rtProtoDV 4 ------- 0 3.1 2.2 -1 13
- 0.044061 3 2 rtProtoDV 4 ------- 0 3.1 2.2 -1 13
r 0.054093 3 0 rtProtoDV 4 ------- 0 3.1 0.2 -1 12
r 0.054093 3 2 rtProtoDV 4 ------- 0 3.1 2.2 -1 13
+ 0.27794 1 0 rtProtoDV 4 ------- 0 1.1 0.2 -1 14
- 0.27794 1 0 rtProtoDV 4 ------- 0 1.1 0.2 -1 14
+ 0.27794 1 2 rtProtoDV 4 ------- 0 1.1 2.2 -1 15
- 0.27794 1 2 rtProtoDV 4 ------- 0 1.1 2.2 -1 15
r 0.287972 1 0 rtProtoDV 4 ------- 0 1.1 0.2 -1 14
r 0.287972 1 2 rtProtoDV 4 ------- 0 1.1 2.2 -1 15
+ 1 0 1 tcp 40 ------- 1 0.0 2.0 0 16
- 1 0 1 tcp 40 ------- 1 0.0 2.0 0 16
r 1.01032 0 1 tcp 40 ------- 1 0.0 2.0 0 16
+ 1.01032 1 2 tcp 40 ------- 1 0.0 2.0 0 16
- 1.01032 1 2 tcp 40 ------- 1 0.0 2.0 0 16
r 1.02064 1 2 tcp 40 ------- 1 0.0 2.0 0 16
+ 1.02064 2 1 ack 40 ------- 1 2.0 0.0 0 17
- 1.02064 2 1 ack 40 ------- 1 2.0 0.0 0 17
r 1.03096 2 1 ack 40 ------- 1 2.0 0.0 0 17
+ 1.03096 1 0 ack 40 ------- 1 2.0 0.0 0 17
- 1.03096 1 0 ack 40 ------- 1 2.0 0.0 0 17
r 1.04128 1 0 ack 40 ------- 1 2.0 0.0 0 17
+ 1.04128 0 1 tcp 1040 ------- 1 0.0 2.0 1 18
- 1.04128 0 1 tcp 1040 ------- 1 0.0 2.0 1 18
+ 1.04128 0 1 tcp 1040 ------- 1 0.0 2.0 2 19
- 1.0496 0 1 tcp 1040 ------- 1 0.0 2.0 2 19
r 1.0596 0 1 tcp 1040 ------- 1 0.0 2.0 1 18
+ 1.0596 1 2 tcp 1040 ------- 1 0.0 2.0 1 18
- 1.0596 1 2 tcp 1040 ------- 1 0.0 2.0 1 18
r 1.06792 0 1 tcp 1040 ------- 1 0.0 2.0 2 19
+ 1.06792 1 2 tcp 1040 ------- 1 0.0 2.0 2 19
- 1.06792 1 2 tcp 1040 ------- 1 0.0 2.0 2 19
r 1.07792 1 2 tcp 1040 ------- 1 0.0 2.0 1 18
+ 1.07792 2 1 ack 40 ------- 1 2.0 0.0 1 20
- 1.07792 2 1 ack 40 ------- 1 2.0 0.0 1 20
r 1.08624 1 2 tcp 1040 ------- 1 0.0 2.0 2 19
+ 1.08624 2 1 ack 40 ------- 1 2.0 0.0 2 21
- 1.08624 2 1 ack 40 ------- 1 2.0 0.0 2 21
r 1.08824 2 1 ack 40 ------- 1 2.0 0.0 1 20
+ 1.08824 1 0 ack 40 ------- 1 2.0 0.0 1 20
- 1.08824 1 0 ack 40 ------- 1 2.0 0.0 1 20
r 1.09656 2 1 ack 40 ------- 1 2.0 0.0 2 21
+ 1.09656 1 0 ack 40 ------- 1 2.0 0.0 2 21
- 1.09656 1 0 ack 40 ------- 1 2.0 0.0 2 21
r 1.09856 1 0 ack 40 ------- 1 2.0 0.0 1 20
+ 1.09856 0 1 tcp 1040 ------- 1 0.0 2.0 3 22
- 1.09856 0 1 tcp 1040 ------- 1 0.0 2.0 3 22
+ 1.09856 0 1 tcp 1040 ------- 1 0.0 2.0 4 23
r 1.10688 1 0 ack 40 ------- 1 2.0 0.0 2 21
+ 1.10688 0 1 tcp 1040 ------- 1 0.0 2.0 5 24
+ 1.10688 0 1 tcp 1040 ------- 1 0.0 2.0 6 25
- 1.10688 0 1 tcp 1040 ------- 1 0.0 2.0 4 23
- 1.1152 0 1 tcp 1040 ------- 1 0.0 2.0 5 24
r 1.11688 0 1 tcp 1040 ------- 1 0.0 2.0 3 22
+ 1.11688 1 2 tcp 1040 ------- 1 0.0 2.0 3 22
- 1.11688 1 2 tcp 1040 ------- 1 0.0 2.0 3 22
- 1.12352 0 1 tcp 1040 ------- 1 0.0 2.0 6 25
r 1.1252 0 1 tcp 1040 ------- 1 0.0 2.0 4 23
+ 1.1252 1 2 tcp 1040 ------- 1 0.0 2.0 4 23
- 1.1252 1 2 tcp 1040 ------- 1 0.0 2.0 4 23
r 1.13352 0 1 tcp 1040 ------- 1 0.0 2.0 5 24
+ 1.13352 1 2 tcp 1040 ------- 1 0.0 2.0 5 24
- 1.13352 1 2 tcp 1040 ------- 1 0.0 2.0 5 24
r 1.1352 1 2 tcp 1040 ------- 1 0.0 2.0 3 22
+ 1.1352 2 1 ack 40 ------- 1 2.0 0.0 3 26
- 1.1352 2 1 ack 40 ------- 1 2.0 0.0 3 26
r 1.14184 0 1 tcp 1040 ------- 1 0.0 2.0 6 25
+ 1.14184 1 2 tcp 1040 ------- 1 0.0 2.0 6 25
- 1.14184 1 2 tcp 1040 ------- 1 0.0 2.0 6 25
r 1.14352 1 2 tcp 1040 ------- 1 0.0 2.0 4 23
+ 1.14352 2 1 ack 40 ------- 1 2.0 0.0 4 27
- 1.14352 2 1 ack 40 ------- 1 2.0 0.0 4 27
r 1.14552 2 1 ack 40 ------- 1 2.0 0.0 3 26
+ 1.14552 1 0 ack 40 ------- 1 2.0 0.0 3 26
- 1.14552 1 0 ack 40 ------- 1 2.0 0.0 3 26
r 1.15184 1 2 tcp 1040 ------- 1 0.0 2.0 5 24
+ 1.15184 2 1 ack 40 ------- 1 2.0 0.0 5 28
- 1.15184 2 1 ack 40 ------- 1 2.0 0.0 5 28
r 1.15384 2 1 ack 40 ------- 1 2.0 0.0 4 27
+ 1.15384 1 0 ack 40 ------- 1 2.0 0.0 4 27
- 1.15384 1 0 ack 40 ------- 1 2.0 0.0 4 27
r 1.15584 1 0 ack 40 ------- 1 2.0 0.0 3 26
+ 1.15584 0 1 tcp 1040 ------- 1 0.0 2.0 7 29
- 1.15584 0 1 tcp 1040 ------- 1 0.0 2.0 7 29
+ 1.15584 0 1 tcp 1040 ------- 1 0.0 2.0 8 30
r 1.16016 1 2 tcp 1040 ------- 1 0.0 2.0 6 25
+ 1.16016 2 1 ack 40 ------- 1 2.0 0.0 6 31
- 1.16016 2 1 ack 40 ------- 1 2.0 0.0 6 31
r 1.16216 2 1 ack 40 ------- 1 2.0 0.0 5 28
+ 1.16216 1 0 ack 40 ------- 1 2.0 0.0 5 28
- 1.16216 1 0 ack 40 ------- 1 2.0 0.0 5 28
r 1.16416 1 0 ack 40 ------- 1 2.0 0.0 4 27
+ 1.16416 0 1 tcp 1040 ------- 1 0.0 2.0 9 32
+ 1.16416 0 1 tcp 1040 ------- 1 0.0 2.0 10 33
- 1.16416 0 1 tcp 1040 ------- 1 0.0 2.0 8 30
r 1.17048 2 1 ack 40 ------- 1 2.0 0.0 6 31
+ 1.17048 1 0 ack 40 ------- 1 2.0 0.0 6 31
- 1.17048 1 0 ack 40 ------- 1 2.0 0.0 6 31
r 1.17248 1 0 ack 40 ------- 1 2.0 0.0 5 28
+ 1.17248 0 1 tcp 1040 ------- 1 0.0 2.0 11 34
+ 1.17248 0 1 tcp 1040 ------- 1 0.0 2.0 12 35
- 1.17248 0 1 tcp 1040 ------- 1 0.0 2.0 9 32
r 1.17416 0 1 tcp 1040 ------- 1 0.0 2.0 7 29
+ 1.17416 1 2 tcp 1040 ------- 1 0.0 2.0 7 29
- 1.17416 1 2 tcp 1040 ------- 1 0.0 2.0 7 29
r 1.1808 1 0 ack 40 ------- 1 2.0 0.0 6 31
+ 1.1808 0 1 tcp 1040 ------- 1 0.0 2.0 13 36
+ 1.1808 0 1 tcp 1040 ------- 1 0.0 2.0 14 37
- 1.1808 0 1 tcp 1040 ------- 1 0.0 2.0 10 33
r 1.18248 0 1 tcp 1040 ------- 1 0.0 2.0 8 30
+ 1.18248 1 2 tcp 1040 ------- 1 0.0 2.0 8 30
- 1.18248 1 2 tcp 1040 ------- 1 0.0 2.0 8 30
- 1.18912 0 1 tcp 1040 ------- 1 0.0 2.0 11 34
r 1.1908 0 1 tcp 1040 ------- 1 0.0 2.0 9 32
+ 1.1908 1 2 tcp 1040 ------- 1 0.0 2.0 9 32
- 1.1908 1 2 tcp 1040 ------- 1 0.0 2.0 9 32
r 1.19248 1 2 tcp 1040 ------- 1 0.0 2.0 7 29
+ 1.19248 2 1 ack 40 ------- 1 2.0 0.0 7 38
- 1.19248 2 1 ack 40 ------- 1 2.0 0.0 7 38
- 1.19744 0 1 tcp 1040 ------- 1 0.0 2.0 12 35
r 1.19912 0 1 tcp 1040 ------- 1 0.0 2.0 10 33
+ 1.19912 1 2 tcp 1040 ------- 1 0.0 2.0 10 33
- 1.19912 1 2 tcp 1040 ------- 1 0.0 2.0 10 33
r 1.2008 1 2 tcp 1040 ------- 1 0.0 2.0 8 30
+ 1.2008 2 1 ack 40 ------- 1 2.0 0.0 8 39
- 1.2008 2 1 ack 40 ------- 1 2.0 0.0 8 39
r 1.2028 2 1 ack 40 ------- 1 2.0 0.0 7 38
+ 1.2028 1 0 ack 40 ------- 1 2.0 0.0 7 38
- 1.2028 1 0 ack 40 ------- 1 2.0 0.0 7 38
- 1.20576 0 1 tcp 1040 ------- 1 0.0 2.0 13 36
r 1.20744 0 1 tcp 1040 ------- 1 0.0 2.0 11 34
+ 1.20744 1 2 tcp 1040 ------- 1 0.0 2.0 11 34
- 1.20744 1 2 tcp 1040 ------- 1 0.0 2.0 11 34
r 1.20912 1 2 tcp 1040 ------- 1 0.0 2.0 9 32
+ 1.20912 2 1 ack 40 ------- 1 2.0 0.0 9 40
- 1.20912 2 1 ack 40 ------- 1 2.0 0.0 9 40
r 1.21112 2 1 ack 40 ------- 1 2.0 0.0 8 39
+ 1.21112 1 0 ack 40 ------- 1 2.0 0.0 8 39
- 1.21112 1 0 ack 40 ------- 1 2.0 0.0 8 39
r 1.21312 1 0 ack 40 ------- 1 2.0 0.0 7 38
+ 1.21312 0 1 tcp 1040 ------- 1 0.0 2.0 15 41
+ 1.21312 0 1 tcp 1040 ------- 1 0.0 2.0 16 42
- 1.21408 0 1 tcp 1040 ------- 1 0.0 2.0 14 37
r 1.21576 0 1 tcp 1040 ------- 1 0.0 2.0 12 35
+ 1.21576 1 2 tcp 1040 ------- 1 0.0 2.0 12 35
- 1.21576 1 2 tcp 1040 ------- 1 0.0 2.0 12 35
r 1.21744 1 2 tcp 1040 ------- 1 0.0 2.0 10 33
+ 1.21744 2 1 ack 40 ------- 1 2.0 0.0 10 43
- 1.21744 2 1 ack 40 ------- 1 2.0 0.0 10 43
r 1.21944 2 1 ack 40 ------- 1 2.0 0.0 9 40
+ 1.21944 1 0 ack 40 ------- 1 2.0 0.0 9 40
- 1.21944 1 0 ack 40 ------- 1 2.0 0.0 9 40
r 1.22144 1 0 ack 40 ------- 1 2.0 0.0 8 39
+ 1.22144 0 1 tcp 1040 ------- 1 0.0 2.0 17 44
+ 1.22144 0 1 tcp 1040 ------- 1 0.0 2.0 18 45
- 1.2224 0 1 tcp 1040 ------- 1 0.0 2.0 15 41
r 1.22408 0 1 tcp 1040 ------- 1 0.0 2.0 13 36
+ 1.22408 1 2 tcp 1040 ------- 1 0.0 2.0 13 36
- 1.22408 1 2 tcp 1040 ------- 1 0.0 2.0 13 36
r 1.22576 1 2 tcp 1040 ------- 1 0.0 2.0 11 34
+ 1.22576 2 1 ack 40 ------- 1 2.0 0.0 11 46
- 1.22576 2 1 ack 40 ------- 1 2.0 0.0 11 46
r 1.22776 2 1 ack 40 ------- 1 2.0 0.0 10 43
+ 1.22776 1 0 ack 40 ------- 1 2.0 0.0 10 43
- 1.22776 1 0 ack 40 ------- 1 2.0 0.0 10 43
r 1.22976 1 0 ack 40 ------- 1 2.0 0.0 9 40
+ 1.22976 0 1 tcp 1040 ------- 1 0.0 2.0 19 47
+ 1.22976 0 1 tcp 1040 ------- 1 0.0 2.0 20 48
- 1.23072 0 1 tcp 1040 ------- 1 0.0 2.0 16 42
r 1.2324 0 1 tcp 1040 ------- 1 0.0 2.0 14 37
+ 1.2324 1 2 tcp 1040 ------- 1 0.0 2.0 14 37
- 1.2324 1 2 tcp 1040 ------- 1 0.0 2.0 14 37
r 1.23408 1 2 tcp 1040 ------- 1 0.0 2.0 12 35
+ 1.23408 2 1 ack 40 ------- 1 2.0 0.0 12 49
- 1.23408 2 1 ack 40 ------- 1 2.0 0.0 12 49
r 1.23608 2 1 ack 40 ------- 1 2.0 0.0 11 46
+ 1.23608 1 0 ack 40 ------- 1 2.0 0.0 11 46
- 1.23608 1 0 ack 40 ------- 1 2.0 0.0 11 46
r 1.23808 1 0 ack 40 ------- 1 2.0 0.0 10 43
+ 1.23808 0 1 tcp 1040 ------- 1 0.0 2.0 21 50
+ 1.23808 0 1 tcp 1040 ------- 1 0.0 2.0 22 51
- 1.23904 0 1 tcp 1040 ------- 1 0.0 2.0 17 44
r 1.24072 0 1 tcp 1040 ------- 1 0.0 2.0 15 41
+ 1.24072 1 2 tcp 1040 ------- 1 0.0 2.0 15 41
- 1.24072 1 2 tcp 1040 ------- 1 0.0 2.0 15 41
r 1.2424 1 2 tcp 1040 ------- 1 0.0 2.0 13 36
+ 1.2424 2 1 ack 40 ------- 1 2.0 0.0 13 52
- 1.2424 2 1 ack 40 ------- 1 2.0 0.0 13 52
r 1.2444 2 1 ack 40 ------- 1 2.0 0.0 12 49
+ 1.2444 1 0 ack 40 ------- 1 2.0 0.0 12 49
- 1.2444 1 0 ack 40 ------- 1 2.0 0.0 12 49
r 1.2464 1 0 ack 40 ------- 1 2.0 0.0 11 46
+ 1.2464 0 1 tcp 1040 ------- 1 0.0 2.0 23 53
+ 1.2464 0 1 tcp 1040 ------- 1 0.0 2.0 24 54
- 1.24736 0 1 tcp 1040 ------- 1 0.0 2.0 18 45
r 1.24904 0 1 tcp 1040 ------- 1 0.0 2.0 16 42
+ 1.24904 1 2 tcp 1040 ------- 1 0.0 2.0 16 42
- 1.24904 1 2 tcp 1040 ------- 1 0.0 2.0 16 42
r 1.25072 1 2 tcp 1040 ------- 1 0.0 2.0 14 37
+ 1.25072 2 1 ack 40 ------- 1 2.0 0.0 14 55
- 1.25072 2 1 ack 40 ------- 1 2.0 0.0 14 55
r 1.25272 2 1 ack 40 ------- 1 2.0 0.0 13 52
+ 1.25272 1 0 ack 40 ------- 1 2.0 0.0 13 52
- 1.25272 1 0 ack 40 ------- 1 2.0 0.0 13 52
r 1.25472 1 0 ack 40 ------- 1 2.0 0.0 12 49
+ 1.25472 0 1 tcp 1040 ------- 1 0.0 2.0 25 56
+ 1.25472 0 1 tcp 1040 ------- 1 0.0 2.0 26 57
- 1.25568 0 1 tcp 1040 ------- 1 0.0 2.0 19 47
r 1.25736 0 1 tcp 1040 ------- 1 0.0 2.0 17 44
+ 1.25736 1 2 tcp 1040 ------- 1 0.0 2.0 17 44
- 1.25736 1 2 tcp 1040 ------- 1 0.0 2.0 17 44
r 1.25904 1 2 tcp 1040 ------- 1 0.0 2.0 15 41
+ 1.25904 2 1 ack 40 ------- 1 2.0 0.0 15 58
- 1.25904 2 1 ack 40 ------- 1 2.0 0.0 15 58
r 1.26104 2 1 ack 40 ------- 1 2.0 0.0 14 55
+ 1.26104 1 0 ack 40 ------- 1 2.0 0.0 14 55
- 1.26104 1 0 ack 40 ------- 1 2.0 0.0 14 55
r 1.26304 1 0 ack 40 ------- 1 2.0 0.0 13 52
+ 1.26304 0 1 tcp 1040 ------- 1 0.0 2.0 27 59
+ 1.26304 0 1 tcp 1040 ------- 1 0.0 2.0 28 60
- 1.264 0 1 tcp 1040 ------- 1 0.0 2.0 20 48
r 1.26568 0 1 tcp 1040 ------- 1 0.0 2.0 18 45
+ 1.26568 1 2 tcp 1040 ------- 1 0.0 2.0 18 45
- 1.26568 1 2 tcp 1040 ------- 1 0.0 2.0 18 45
r 1.26736 1 2 tcp 1040 ------- 1 0.0 2.0 16 42
+ 1.26736 2 1 ack 40 ------- 1 2.0 0.0 16 61
- 1.26736 2 1 ack 40 ------- 1 2.0 0.0 16 61
r 1.26936 2 1 ack 40 ------- 1 2.0 0.0 15 58
+ 1.26936 1 0 ack 40 ------- 1 2.0 0.0 15 58
- 1.26936 1 0 ack 40 ------- 1 2.0 0.0 15 58
r 1.27136 1 0 ack 40 ------- 1 2.0 0.0 14 55
+ 1.27136 0 1 tcp 1040 ------- 1 0.0 2.0 29 62
+ 1.27136 0 1 tcp 1040 ------- 1 0.0 2.0 30 63
- 1.27232 0 1 tcp 1040 ------- 1 0.0 2.0 21 50
r 1.274 0 1 tcp 1040 ------- 1 0.0 2.0 19 47
+ 1.274 1 2 tcp 1040 ------- 1 0.0 2.0 19 47
- 1.274 1 2 tcp 1040 ------- 1 0.0 2.0 19 47
r 1.27568 1 2 tcp 1040 ------- 1 0.0 2.0 17 44
+ 1.27568 2 1 ack 40 ------- 1 2.0 0.0 17 64
- 1.27568 2 1 ack 40 ------- 1 2.0 0.0 17 64
r 1.27768 2 1 ack 40 ------- 1 2.0 0.0 16 61
+ 1.27768 1 0 ack 40 ------- 1 2.0 0.0 16 61
- 1.27768 1 0 ack 40 ------- 1 2.0 0.0 16 61
r 1.27968 1 0 ack 40 ------- 1 2.0 0.0 15 58
+ 1.27968 0 1 tcp 1040 ------- 1 0.0 2.0 31 65
+ 1.27968 0 1 tcp 1040 ------- 1 0.0 2.0 32 66
- 1.28064 0 1 tcp 1040 ------- 1 0.0 2.0 22 51
r 1.28232 0 1 tcp 1040 ------- 1 0.0 2.0 20 48
+ 1.28232 1 2 tcp 1040 ------- 1 0.0 2.0 20 48
- 1.28232 1 2 tcp 1040 ------- 1 0.0 2.0 20 48
r 1.284 1 2 tcp 1040 ------- 1 0.0 2.0 18 45
+ 1.284 2 1 ack 40 ------- 1 2.0 0.0 18 67
- 1.284 2 1 ack 40 ------- 1 2.0 0.0 18 67
r 1.286 2 1 ack 40 ------- 1 2.0 0.0 17 64
+ 1.286 1 0 ack 40 ------- 1 2.0 0.0 17 64
- 1.286 1 0 ack 40 ------- 1 2.0 0.0 17 64
r 1.288 1 0 ack 40 ------- 1 2.0 0.0 16 61
+ 1.288 0 1 tcp 1040 ------- 1 0.0 2.0 33 68
+ 1.288 0 1 tcp 1040 ------- 1 0.0 2.0 34 69
- 1.28896 0 1 tcp 1040 ------- 1 0.0 2.0 23 53
r 1.29064 0 1 tcp 1040 ------- 1 0.0 2.0 21 50
+ 1.29064 1 2 tcp 1040 ------- 1 0.0 2.0 21 50
- 1.29064 1 2 tcp 1040 ------- 1 0.0 2.0 21 50
r 1.29232 1 2 tcp 1040 ------- 1 0.0 2.0 19 47
+ 1.29232 2 1 ack 40 ------- 1 2.0 0.0 19 70
- 1.29232 2 1 ack 40 ------- 1 2.0 0.0 19 70
r 1.29432 2 1 ack 40 ------- 1 2.0 0.0 18 67
+ 1.29432 1 0 ack 40 ------- 1 2.0 0.0 18 67
- 1.29432 1 0 ack 40 ------- 1 2.0 0.0 18 67
r 1.29632 1 0 ack 40 ------- 1 2.0 0.0 17 64
+ 1.29632 0 1 tcp 1040 ------- 1 0.0 2.0 35 71
+ 1.29632 0 1 tcp 1040 ------- 1 0.0 2.0 36 72
- 1.29728 0 1 tcp 1040 ------- 1 0.0 2.0 24 54
r 1.29896 0 1 tcp 1040 ------- 1 0.0 2.0 22 51
+ 1.29896 1 2 tcp 1040 ------- 1 0.0 2.0 22 51
- 1.29896 1 2 tcp 1040 ------- 1 0.0 2.0 22 51
r 1.30064 1 2 tcp 1040 ------- 1 0.0 2.0 20 48
+ 1.30064 2 1 ack 40 ------- 1 2.0 0.0 20 73
- 1.30064 2 1 ack 40 ------- 1 2.0 0.0 20 73
r 1.30264 2 1 ack 40 ------- 1 2.0 0.0 19 70
+ 1.30264 1 0 ack 40 ------- 1 2.0 0.0 19 70
- 1.30264 1 0 ack 40 ------- 1 2.0 0.0 19 70
r 1.30464 1 0 ack 40 ------- 1 2.0 0.0 18 67
+ 1.30464 0 1 tcp 1040 ------- 1 0.0 2.0 37 74
+ 1.30464 0 1 tcp 1040 ------- 1 0.0 2.0 38 75
- 1.3056 0 1 tcp 1040 ------- 1 0.0 2.0 25 56
r 1.30728 0 1 tcp 1040 ------- 1 0.0 2.0 23 53
+ 1.30728 1 2 tcp 1040 ------- 1 0.0 2.0 23 53
- 1.30728 1 2 tcp 1040 ------- 1 0.0 2.0 23 53
r 1.30896 1 2 tcp 1040 ------- 1 0.0 2.0 21 50
+ 1.30896 2 1 ack 40 ------- 1 2.0 0.0 21 76
- 1.30896 2 1 ack 40 ------- 1 2.0 0.0 21 76
r 1.31096 2 1 ack 40 ------- 1 2.0 0.0 20 73
+ 1.31096 1 0 ack 40 ------- 1 2.0 0.0 20 73
- 1.31096 1 0 ack 40 ------- 1 2.0 0.0 20 73
r 1.31296 1 0 ack 40 ------- 1 2.0 0.0 19 70
+ 1.31296 0 1 tcp 1040 ------- 1 0.0 2.0 39 77
- 1.31392 0 1 tcp 1040 ------- 1 0.0 2.0 26 57
r 1.3156 0 1 tcp 1040 ------- 1 0.0 2.0 24 54
+ 1.3156 1 2 tcp 1040 ------- 1 0.0 2.0 24 54
- 1.3156 1 2 tcp 1040 ------- 1 0.0 2.0 24 54
r 1.31728 1 2 tcp 1040 ------- 1 0.0 2.0 22 51
+ 1.31728 2 1 ack 40 ------- 1 2.0 0.0 22 78
- 1.31728 2 1 ack 40 ------- 1 2.0 0.0 22 78
r 1.31928 2 1 ack 40 ------- 1 2.0 0.0 21 76
+ 1.31928 1 0 ack 40 ------- 1 2.0 0.0 21 76
- 1.31928 1 0 ack 40 ------- 1 2.0 0.0 21 76
r 1.32128 1 0 ack 40 ------- 1 2.0 0.0 20 73
+ 1.32128 0 1 tcp 1040 ------- 1 0.0 2.0 40 79
- 1.32224 0 1 tcp 1040 ------- 1 0.0 2.0 27 59
r 1.32392 0 1 tcp 1040 ------- 1 0.0 2.0 25 56
+ 1.32392 1 2 tcp 1040 ------- 1 0.0 2.0 25 56
- 1.32392 1 2 tcp 1040 ------- 1 0.0 2.0 25 56
r 1.3256 1 2 tcp 1040 ------- 1 0.0 2.0 23 53
+ 1.3256 2 1 ack 40 ------- 1 2.0 0.0 23 80
- 1.3256 2 1 ack 40 ------- 1 2.0 0.0 23 80
r 1.3276 2 1 ack 40 ------- 1 2.0 0.0 22 78
+ 1.3276 1 0 ack 40 ------- 1 2.0 0.0 22 78
- 1.3276 1 0 ack 40 ------- 1 2.0 0.0 22 78
r 1.3296 1 0 ack 40 ------- 1 2.0 0.0 21 76
+ 1.3296 0 1 tcp 1040 ------- 1 0.0 2.0 41 81
- 1.33056 0 1 tcp 1040 ------- 1 0.0 2.0 28 60
r 1.33224 0 1 tcp 1040 ------- 1 0.0 2.0 26 57
+ 1.33224 1 2 tcp 1040 ------- 1 0.0 2.0 26 57
- 1.33224 1 2 tcp 1040 ------- 1 0.0 2.0 26 57
r 1.33392 1 2 tcp 1040 ------- 1 0.0 2.0 24 54
+ 1.33392 2 1 ack 40 ------- 1 2.0 0.0 24 82
- 1.33392 2 1 ack 40 ------- 1 2.0 0.0 24 82
r 1.33592 2 1 ack 40 ------- 1 2.0 0.0 23 80
+ 1.33592 1 0 ack 40 ------- 1 2.0 0.0 23 80
- 1.33592 1 0 ack 40 ------- 1 2.0 0.0 23 80
r 1.33792 1 0 ack 40 ------- 1 2.0 0.0 22 78
+ 1.33792 0 1 tcp 1040 ------- 1 0.0 2.0 42 83
- 1.33888 0 1 tcp 1040 ------- 1 0.0 2.0 29 62
r 1.34056 0 1 tcp 1040 ------- 1 0.0 2.0 27 59
+ 1.34056 1 2 tcp 1040 ------- 1 0.0 2.0 27 59
- 1.34056 1 2 tcp 1040 ------- 1 0.0 2.0 27 59
r 1.34224 1 2 tcp 1040 ------- 1 0.0 2.0 25 56
+ 1.34224 2 1 ack 40 ------- 1 2.0 0.0 25 84
- 1.34224 2 1 ack 40 ------- 1 2.0 0.0 25 84
r 1.34424 2 1 ack 40 ------- 1 2.0 0.0 24 82
+ 1.34424 1 0 ack 40 ------- 1 2.0 0.0 24 82
- 1.34424 1 0 ack 40 ------- 1 2.0 0.0 24 82
r 1.34624 1 0 ack 40 ------- 1 2.0 0.0 23 80
+ 1.34624 0 1 tcp 1040 ------- 1 0.0 2.0 43 85
- 1.3472 0 1 tcp 1040 ------- 1 0.0 2.0 30 63
r 1.34888 0 1 tcp 1040 ------- 1 0.0 2.0 28 60
+ 1.34888 1 2 tcp 1040 ------- 1 0.0 2.0 28 60
- 1.34888 1 2 tcp 1040 ------- 1 0.0 2.0 28 60
r 1.35056 1 2 tcp 1040 ------- 1 0.0 2.0 26 57
+ 1.35056 2 1 ack 40 ------- 1 2.0 0.0 26 86
- 1.35056 2 1 ack 40 ------- 1 2.0 0.0 26 86
r 1.35256 2 1 ack 40 ------- 1 2.0 0.0 25 84
+ 1.35256 1 0 ack 40 ------- 1 2.0 0.0 25 84
- 1.35256 1 0 ack 40 ------- 1 2.0 0.0 25 84
r 1.35456 1 0 ack 40 ------- 1 2.0 0.0 24 82
+ 1.35456 0 1 tcp 1040 ------- 1 0.0 2.0 44 87
- 1.35552 0 1 tcp 1040 ------- 1 0.0 2.0 31 65
r 1.3572 0 1 tcp 1040 ------- 1 0.0 2.0 29 62
+ 1.3572 1 2 tcp 1040 ------- 1 0.0 2.0 29 62
- 1.3572 1 2 tcp 1040 ------- 1 0.0 2.0 29 62
r 1.35888 1 2 tcp 1040 ------- 1 0.0 2.0 27 59
+ 1.35888 2 1 ack 40 ------- 1 2.0 0.0 27 88
- 1.35888 2 1 ack 40 ------- 1 2.0 0.0 27 88
r 1.36088 2 1 ack 40 ------- 1 2.0 0.0 26 86
+ 1.36088 1 0 ack 40 ------- 1 2.0 0.0 26 86
- 1.36088 1 0 ack 40 ------- 1 2.0 0.0 26 86
r 1.36288 1 0 ack 40 ------- 1 2.0 0.0 25 84
+ 1.36288 0 1 tcp 1040 ------- 1 0.0 2.0 45 89
- 1.36384 0 1 tcp 1040 ------- 1 0.0 2.0 32 66
r 1.36552 0 1 tcp 1040 ------- 1 0.0 2.0 30 63
+ 1.36552 1 2 tcp 1040 ------- 1 0.0 2.0 30 63
- 1.36552 1 2 tcp 1040 ------- 1 0.0 2.0 30 63
r 1.3672 1 2 tcp 1040 ------- 1 0.0 2.0 28 60
+ 1.3672 2 1 ack 40 ------- 1 2.0 0.0 28 90
- 1.3672 2 1 ack 40 ------- 1 2.0 0.0 28 90
r 1.3692 2 1 ack 40 ------- 1 2.0 0.0 27 88
+ 1.3692 1 0 ack 40 ------- 1 2.0 0.0 27 88
- 1.3692 1 0 ack 40 ------- 1 2.0 0.0 27 88
r 1.3712 1 0 ack 40 ------- 1 2.0 0.0 26 86
+ 1.3712 0 1 tcp 1040 ------- 1 0.0 2.0 46 91
- 1.37216 0 1 tcp 1040 ------- 1 0.0 2.0 33 68
r 1.37384 0 1 tcp 1040 ------- 1 0.0 2.0 31 65
+ 1.37384 1 2 tcp 1040 ------- 1 0.0 2.0 31 65
- 1.37384 1 2 tcp 1040 ------- 1 0.0 2.0 31 65
r 1.37552 1 2 tcp 1040 ------- 1 0.0 2.0 29 62
+ 1.37552 2 1 ack 40 ------- 1 2.0 0.0 29 92
- 1.37552 2 1 ack 40 ------- 1 2.0 0.0 29 92
r 1.37752 2 1 ack 40 ------- 1 2.0 0.0 28 90
+ 1.37752 1 0 ack 40 ------- 1 2.0 0.0 28 90
- 1.37752 1 0 ack 40 ------- 1 2.0 0.0 28 90
r 1.37952 1 0 ack 40 ------- 1 2.0 0.0 27 88
+ 1.37952 0 1 tcp 1040 ------- 1 0.0 2.0 47 93
- 1.38048 0 1 tcp 1040 ------- 1 0.0 2.0 34 69
r 1.38216 0 1 tcp 1040 ------- 1 0.0 2.0 32 66
+ 1.38216 1 2 tcp 1040 ------- 1 0.0 2.0 32 66
- 1.38216 1 2 tcp 1040 ------- 1 0.0 2.0 32 66
r 1.38384 1 2 tcp 1040 ------- 1 0.0 2.0 30 63
+ 1.38384 2 1 ack 40 ------- 1 2.0 0.0 30 94
- 1.38384 2 1 ack 40 ------- 1 2.0 0.0 30 94
r 1.38584 2 1 ack 40 ------- 1 2.0 0.0 29 92
+ 1.38584 1 0 ack 40 ------- 1 2.0 0.0 29 92
- 1.38584 1 0 ack 40 ------- 1 2.0 0.0 29 92
r 1.38784 1 0 ack 40 ------- 1 2.0 0.0 28 90
+ 1.38784 0 1 tcp 1040 ------- 1 0.0 2.0 48 95
- 1.3888 0 1 tcp 1040 ------- 1 0.0 2.0 35 71
r 1.39048 0 1 tcp 1040 ------- 1 0.0 2.0 33 68
+ 1.39048 1 2 tcp 1040 ------- 1 0.0 2.0 33 68
- 1.39048 1 2 tcp 1040 ------- 1 0.0 2.0 33 68
r 1.39216 1 2 tcp 1040 ------- 1 0.0 2.0 31 65
+ 1.39216 2 1 ack 40 ------- 1 2.0 0.0 31 96
- 1.39216 2 1 ack 40 ------- 1 2.0 0.0 31 96
r 1.39416 2 1 ack 40 ------- 1 2.0 0.0 30 94
+ 1.39416 1 0 ack 40 ------- 1 2.0 0.0 30 94
- 1.39416 1 0 ack 40 ------- 1 2.0 0.0 30 94
r 1.39616 1 0 ack 40 ------- 1 2.0 0.0 29 92
+ 1.39616 0 1 tcp 1040 ------- 1 0.0 2.0 49 97
- 1.39712 0 1 tcp 1040 ------- 1 0.0 2.0 36 72
r 1.3988 0 1 tcp 1040 ------- 1 0.0 2.0 34 69
+ 1.3988 1 2 tcp 1040 ------- 1 0.0 2.0 34 69
- 1.3988 1 2 tcp 1040 ------- 1 0.0 2.0 34 69
r 1.40048 1 2 tcp 1040 ------- 1 0.0 2.0 32 66
+ 1.40048 2 1 ack 40 ------- 1 2.0 0.0 32 98
- 1.40048 2 1 ack 40 ------- 1 2.0 0.0 32 98
r 1.40248 2 1 ack 40 ------- 1 2.0 0.0 31 96
+ 1.40248 1 0 ack 40 ------- 1 2.0 0.0 31 96
- 1.40248 1 0 ack 40 ------- 1 2.0 0.0 31 96
r 1.40448 1 0 ack 40 ------- 1 2.0 0.0 30 94
+ 1.40448 0 1 tcp 1040 ------- 1 0.0 2.0 50 99
- 1.40544 0 1 tcp 1040 ------- 1 0.0 2.0 37 74
r 1.40712 0 1 tcp 1040 ------- 1 0.0 2.0 35 71
+ 1.40712 1 2 tcp 1040 ------- 1 0.0 2.0 35 71
- 1.40712 1 2 tcp 1040 ------- 1 0.0 2.0 35 71
r 1.4088 1 2 tcp 1040 ------- 1 0.0 2.0 33 68
+ 1.4088 2 1 ack 40 ------- 1 2.0 0.0 33 100
- 1.4088 2 1 ack 40 ------- 1 2.0 0.0 33 100
r 1.4108 2 1 ack 40 ------- 1 2.0 0.0 32 98
+ 1.4108 1 0 ack 40 ------- 1 2.0 0.0 32 98
- 1.4108 1 0 ack 40 ------- 1 2.0 0.0 32 98
r 1.4128 1 0 ack 40 ------- 1 2.0 0.0 31 96
+ 1.4128 0 1 tcp 1040 ------- 1 0.0 2.0 51 101
- 1.41376 0 1 tcp 1040 ------- 1 0.0 2.0 38 75
r 1.41544 0 1 tcp 1040 ------- 1 0.0 2.0 36 72
+ 1.41544 1 2 tcp 1040 ------- 1 0.0 2.0 36 72
- 1.41544 1 2 tcp 1040 ------- 1 0.0 2.0 36 72
r 1.41712 1 2 tcp 1040 ------- 1 0.0 2.0 34 69
+ 1.41712 2 1 ack 40 ------- 1 2.0 0.0 34 102
- 1.41712 2 1 ack 40 ------- 1 2.0 0.0 34 102
r 1.41912 2 1 ack 40 ------- 1 2.0 0.0 33 100
+ 1.41912 1 0 ack 40 ------- 1 2.0 0.0 33 100
- 1.41912 1 0 ack 40 ------- 1 2.0 0.0 33 100
r 1.42112 1 0 ack 40 ------- 1 2.0 0.0 32 98
+ 1.42112 0 1 tcp 1040 ------- 1 0.0 2.0 52 103
- 1.42208 0 1 tcp 1040 ------- 1 0.0 2.0 39 77
r 1.42376 0 1 tcp 1040 ------- 1 0.0 2.0 37 74
+ 1.42376 1 2 tcp 1040 ------- 1 0.0 2.0 37 74
- 1.42376 1 2 tcp 1040 ------- 1 0.0 2.0 37 74
r 1.42544 1 2 tcp 1040 ------- 1 0.0 2.0 35 71
+ 1.42544 2 1 ack 40 ------- 1 2.0 0.0 35 104
- 1.42544 2 1 ack 40 ------- 1 2.0 0.0 35 104
r 1.42744 2 1 ack 40 ------- 1 2.0 0.0 34 102
+ 1.42744 1 0 ack 40 ------- 1 2.0 0.0 34 102
- 1.42744 1 0 ack 40 ------- 1 2.0 0.0 34 102
r 1.42944 1 0 ack 40 ------- 1 2.0 0.0 33 100
+ 1.42944 0 1 tcp 1040 ------- 1 0.0 2.0 53 105
- 1.4304 0 1 tcp 1040 ------- 1 0.0 2.0 40 79
r 1.43208 0 1 tcp 1040 ------- 1 0.0 2.0 38 75
+ 1.43208 1 2 tcp 1040 ------- 1 0.0 2.0 38 75
- 1.43208 1 2 tcp 1040 ------- 1 0.0 2.0 38 75
r 1.43376 1 2 tcp 1040 ------- 1 0.0 2.0 36 72
+ 1.43376 2 1 ack 40 ------- 1 2.0 0.0 36 106
- 1.43376 2 1 ack 40 ------- 1 2.0 0.0 36 106
r 1.43576 2 1 ack 40 ------- 1 2.0 0.0 35 104
+ 1.43576 1 0 ack 40 ------- 1 2.0 0.0 35 104
- 1.43576 1 0 ack 40 ------- 1 2.0 0.0 35 104
r 1.43776 1 0 ack 40 ------- 1 2.0 0.0 34 102
+ 1.43776 0 1 tcp 1040 ------- 1 0.0 2.0 54 107
- 1.43872 0 1 tcp 1040 ------- 1 0.0 2.0 41 81
r 1.4404 0 1 tcp 1040 ------- 1 0.0 2.0 39 77
+ 1.4404 1 2 tcp 1040 ------- 1 0.0 2.0 39 77
- 1.4404 1 2 tcp 1040 ------- 1 0.0 2.0 39 77
r 1.44208 1 2 tcp 1040 ------- 1 0.0 2.0 37 74
+ 1.44208 2 1 ack 40 ------- 1 2.0 0.0 37 108
- 1.44208 2 1 ack 40 ------- 1 2.0 0.0 37 108
r 1.44408 2 1 ack 40 ------- 1 2.0 0.0 36 106
+ 1.44408 1 0 ack 40 ------- 1 2.0 0.0 36 106
- 1.44408 1 0 ack 40 ------- 1 2.0 0.0 36 106
r 1.44608 1 0 ack 40 ------- 1 2.0 0.0 35 104
+ 1.44608 0 1 tcp 1040 ------- 1 0.0 2.0 55 109
- 1.44704 0 1 tcp 1040 ------- 1 0.0 2.0 42 83
r 1.44872 0 1 tcp 1040 ------- 1 0.0 2.0 40 79
+ 1.44872 1 2 tcp 1040 ------- 1 0.0 2.0 40 79
- 1.44872 1 2 tcp 1040 ------- 1 0.0 2.0 40 79
r 1.4504 1 2 tcp 1040 ------- 1 0.0 2.0 38 75
+ 1.4504 2 1 ack 40 ------- 1 2.0 0.0 38 110
- 1.4504 2 1 ack 40 ------- 1 2.0 0.0 38 110
r 1.4524 2 1 ack 40 ------- 1 2.0 0.0 37 108
+ 1.4524 1 0 ack 40 ------- 1 2.0 0.0 37 108
- 1.4524 1 0 ack 40 ------- 1 2.0 0.0 37 108
r 1.4544 1 0 ack 40 ------- 1 2.0 0.0 36 106
+ 1.4544 0 1 tcp 1040 ------- 1 0.0 2.0 56 111
- 1.45536 0 1 tcp 1040 ------- 1 0.0 2.0 43 85
r 1.45704 0 1 tcp 1040 ------- 1 0.0 2.0 41 81
+ 1.45704 1 2 tcp 1040 ------- 1 0.0 2.0 41 81
- 1.45704 1 2 tcp 1040 ------- 1 0.0 2.0 41 81
r 1.45872 1 2 tcp 1040 ------- 1 0.0 2.0 39 77
+ 1.45872 2 1 ack 40 ------- 1 2.0 0.0 39 112
- 1.45872 2 1 ack 40 ------- 1 2.0 0.0 39 112
r 1.46072 2 1 ack 40 ------- 1 2.0 0.0 38 110
+ 1.46072 1 0 ack 40 ------- 1 2.0 0.0 38 110
- 1.46072 1 0 ack 40 ------- 1 2.0 0.0 38 110
r 1.46272 1 0 ack 40 ------- 1 2.0 0.0 37 108
+ 1.46272 0 1 tcp 1040 ------- 1 0.0 2.0 57 113
- 1.46368 0 1 tcp 1040 ------- 1 0.0 2.0 44 87
r 1.46536 0 1 tcp 1040 ------- 1 0.0 2.0 42 83
+ 1.46536 1 2 tcp 1040 ------- 1 0.0 2.0 42 83
- 1.46536 1 2 tcp 1040 ------- 1 0.0 2.0 42 83
r 1.46704 1 2 tcp 1040 ------- 1 0.0 2.0 40 79
+ 1.46704 2 1 ack 40 ------- 1 2.0 0.0 40 114
- 1.46704 2 1 ack 40 ------- 1 2.0 0.0 40 114
r 1.46904 2 1 ack 40 ------- 1 2.0 0.0 39 112
+ 1.46904 1 0 ack 40 ------- 1 2.0 0.0 39 112
- 1.46904 1 0 ack 40 ------- 1 2.0 0.0 39 112
r 1.47104 1 0 ack 40 ------- 1 2.0 0.0 38 110
+ 1.47104 0 1 tcp 1040 ------- 1 0.0 2.0 58 115
- 1.472 0 1 tcp 1040 ------- 1 0.0 2.0 45 89
r 1.47368 0 1 tcp 1040 ------- 1 0.0 2.0 43 85
+ 1.47368 1 2 tcp 1040 ------- 1 0.0 2.0 43 85
- 1.47368 1 2 tcp 1040 ------- 1 0.0 2.0 43 85
r 1.47536 1 2 tcp 1040 ------- 1 0.0 2.0 41 81
+ 1.47536 2 1 ack 40 ------- 1 2.0 0.0 41 116
- 1.47536 2 1 ack 40 ------- 1 2.0 0.0 41 116
r 1.47736 2 1 ack 40 ------- 1 2.0 0.0 40 114
+ 1.47736 1 0 ack 40 ------- 1 2.0 0.0 40 114
- 1.47736 1 0 ack 40 ------- 1 2.0 0.0 40 114
r 1.47936 1 0 ack 40 ------- 1 2.0 0.0 39 112
+ 1.47936 0 1 tcp 1040 ------- 1 0.0 2.0 59 117
- 1.48032 0 1 tcp 1040 ------- 1 0.0 2.0 46 91
r 1.482 0 1 tcp 1040 ------- 1 0.0 2.0 44 87
+ 1.482 1 2 tcp 1040 ------- 1 0.0 2.0 44 87
- 1.482 1 2 tcp 1040 ------- 1 0.0 2.0 44 87
r 1.48368 1 2 tcp 1040 ------- 1 0.0 2.0 42 83
+ 1.48368 2 1 ack 40 ------- 1 2.0 0.0 42 118
- 1.48368 2 1 ack 40 ------- 1 2.0 0.0 42 118
r 1.48568 2 1 ack 40 ------- 1 2.0 0.0 41 116
+ 1.48568 1 0 ack 40 ------- 1 2.0 0.0 41 116
- 1.48568 1 0 ack 40 ------- 1 2.0 0.0 41 116
r 1.48768 1 0 ack 40 ------- 1 2.0 0.0 40 114
+ 1.48768 0 1 tcp 1040 ------- 1 0.0 2.0 60 119
- 1.48864 0 1 tcp 1040 ------- 1 0.0 2.0 47 93
r 1.49032 0 1 tcp 1040 ------- 1 0.0 2.0 45 89
+ 1.49032 1 2 tcp 1040 ------- 1 0.0 2.0 45 89
- 1.49032 1 2 tcp 1040 ------- 1 0.0 2.0 45 89
r 1.492 1 2 tcp 1040 ------- 1 0.0 2.0 43 85
+ 1.492 2 1 ack 40 ------- 1 2.0 0.0 43 120
- 1.492 2 1 ack 40 ------- 1 2.0 0.0 43 120
r 1.494 2 1 ack 40 ------- 1 2.0 0.0 42 118
+ 1.494 1 0 ack 40 ------- 1 2.0 0.0 42 118
- 1.494 1 0 ack 40 ------- 1 2.0 0.0 42 118
r 1.496 1 0 ack 40 ------- 1 2.0 0.0 41 116
+ 1.496 0 1 tcp 1040 ------- 1 0.0 2.0 61 121
- 1.49696 0 1 tcp 1040 ------- 1 0.0 2.0 48 95
r 1.49864 0 1 tcp 1040 ------- 1 0.0 2.0 46 91
+ 1.49864 1 2 tcp 1040 ------- 1 0.0 2.0 46 91
- 1.49864 1 2 tcp 1040 ------- 1 0.0 2.0 46 91
d 1.5 1 0 ack 40 ------- 1 2.0 0.0 42 118
v 1.5 link-down 1 0
v 1.5 link-down 1 0
d 1.5 0 1 tcp 1040 ------- 1 0.0 2.0 49 97
d 1.5 0 1 tcp 1040 ------- 1 0.0 2.0 50 99
d 1.5 0 1 tcp 1040 ------- 1 0.0 2.0 51 101
d 1.5 0 1 tcp 1040 ------- 1 0.0 2.0 52 103
d 1.5 0 1 tcp 1040 ------- 1 0.0 2.0 53 105
d 1.5 0 1 tcp 1040 ------- 1 0.0 2.0 54 107
d 1.5 0 1 tcp 1040 ------- 1 0.0 2.0 55 109
d 1.5 0 1 tcp 1040 ------- 1 0.0 2.0 56 111
d 1.5 0 1 tcp 1040 ------- 1 0.0 2.0 57 113
d 1.5 0 1 tcp 1040 ------- 1 0.0 2.0 58 115
d 1.5 0 1 tcp 1040 ------- 1 0.0 2.0 59 117
d 1.5 0 1 tcp 1040 ------- 1 0.0 2.0 60 119
d 1.5 0 1 tcp 1040 ------- 1 0.0 2.0 61 121
d 1.5 0 1 tcp 1040 ------- 1 0.0 2.0 47 93
d 1.5 0 1 tcp 1040 ------- 1 0.0 2.0 48 95
v 1.5 link-down 0 1
v 1.5 link-down 0 1
+ 1.5 0 3 rtProtoDV 4 ------- 0 0.2 3.1 -1 122
- 1.5 0 3 rtProtoDV 4 ------- 0 0.2 3.1 -1 122
+ 1.5 1 2 rtProtoDV 4 ------- 0 1.1 2.2 -1 123
r 1.50032 1 2 tcp 1040 ------- 1 0.0 2.0 44 87
+ 1.50032 2 1 ack 40 ------- 1 2.0 0.0 44 124
- 1.50032 2 1 ack 40 ------- 1 2.0 0.0 44 124
r 1.50232 2 1 ack 40 ------- 1 2.0 0.0 43 120
- 1.50696 1 2 rtProtoDV 4 ------- 0 1.1 2.2 -1 123
r 1.50864 1 2 tcp 1040 ------- 1 0.0 2.0 45 89
+ 1.50864 2 1 ack 40 ------- 1 2.0 0.0 45 125
- 1.50864 2 1 ack 40 ------- 1 2.0 0.0 45 125
r 1.510032 0 3 rtProtoDV 4 ------- 0 0.2 3.1 -1 122
+ 1.510032 3 0 rtProtoDV 4 ------- 0 3.1 0.2 -1 126
- 1.510032 3 0 rtProtoDV 4 ------- 0 3.1 0.2 -1 126
+ 1.510032 3 2 rtProtoDV 4 ------- 0 3.1 2.2 -1 127
- 1.510032 3 2 rtProtoDV 4 ------- 0 3.1 2.2 -1 127
r 1.51064 2 1 ack 40 ------- 1 2.0 0.0 44 124
r 1.51696 1 2 tcp 1040 ------- 1 0.0 2.0 46 91
+ 1.51696 2 1 ack 40 ------- 1 2.0 0.0 46 128
- 1.51696 2 1 ack 40 ------- 1 2.0 0.0 46 128
r 1.516992 1 2 rtProtoDV 4 ------- 0 1.1 2.2 -1 123
+ 1.516992 2 1 rtProtoDV 4 ------- 0 2.2 1.1 -1 129
+ 1.516992 2 3 rtProtoDV 4 ------- 0 2.2 3.1 -1 130
- 1.516992 2 3 rtProtoDV 4 ------- 0 2.2 3.1 -1 130
- 1.51728 2 1 rtProtoDV 4 ------- 0 2.2 1.1 -1 129
r 1.51896 2 1 ack 40 ------- 1 2.0 0.0 45 125
r 1.520064 3 0 rtProtoDV 4 ------- 0 3.1 0.2 -1 126
+ 1.520064 0 3 rtProtoDV 4 ------- 0 0.2 3.1 -1 131
- 1.520064 0 3 rtProtoDV 4 ------- 0 0.2 3.1 -1 131