V -t * -v 1.0a5 -a 0
A -t * -n 1 -p 0 -o 0x7fffffff -c 30 -a 1
A -t * -h 1 -m 1073741823 -s 0
c -t * -i 1 -n Red
c -t * -i 2 -n Blue
n -t * -a 0 -s 0 -S UP -v circle -c black -i black
n -t * -a 1 -s 1 -S UP -v circle -c black -i black
n -t * -a 2 -s 2 -S UP -v circle -c black -i black
n -t * -a 3 -s 3 -S UP -v circle -c black -i black
l -t * -s 0 -d 1 -S UP -r 1000000 -D 0.01 -c black -o right
l -t * -s 1 -d 2 -S UP -r 1000000 -D 0.01 -c black -o down
l -t * -s 2 -d 3 -S UP -r 1000000 -D 0.01 -c black -o left
l -t * -s 3 -d 0 -S UP -r 1000000 -D 0.01 -c black -o up
+ -t 0.000169788487334637 -s 0 -d 1 -p rtProtoDV -e 4 -c 0 -i 0 -a 0 -x {0.2 1.1 -1 ------- null}
- -t 0.000169788487334637 -s 0 -d 1 -p rtProtoDV -e 4 -c 0 -i 0 -a 0 -x {0.2 1.1 -1 ------- null}
h -t 0.000169788487334637 -s 0 -d 1 -p rtProtoDV -e 4 -c 0 -i 0 -a 0 -x {0.2 1.1 -1 ------- null}
+ -t 0.000169788487334637 -s 0 -d 3 -p rtProtoDV -e 4 -c 0 -i 1 -a 0 -x {0.2 3.1 -1 ------- null}
- -t 0.000169788487334637 -s 0 -d 3 -p rtProtoDV -e 4 -c 0 -i 1 -a 0 -x {0.2 3.1 -1 ------- null}
h -t 0.000169788487334637 -s 0 -d 3 -p rtProtoDV -e 4 -c 0 -i 1 -a 0 -x {0.2 3.1 -1 ------- null}
+ -t 0.00710233021858257 -s 2 -d 1 -p rtProtoDV -e 4 -c 0 -i 2 -a 0 -x {2.2 1.1 -1 ------- null}
- -t 0.00710233021858257 -s 2 -d 1 -p rtProtoDV -e 4 -c 0 -i 2 -a 0 -x {2.2 1.1 -1 ------- null}
h -t 0.00710233021858257 -s 2 -d 1 -p rtProtoDV -e 4 -c 0 -i 2 -a 0 -x {2.2 1.1 -1 ------- null}
+ -t 0.00710233021858257 -s 2 -d 3 -p rtProtoDV -e 4 -c 0 -i 3 -a 0 -x {2.2 3.1 -1 ------- null}
- -t 0.00710233021858257 -s 2 -d 3 -p rtProtoDV -e 4 -c 0 -i 3 -a 0 -x {2.2 3.1 -1 ------- null}
h -t 0.00710233021858257 -s 2 -d 3 -p rtProtoDV -e 4 -c 0 -i 3 -a 0 -x {2.2 3.1 -1 ------- null}
r -t 0.0102017884873346 -s 0 -d 1 -p rtProtoDV -e 4 -c 0 -i 0 -a 0 -x {0.2 1.1 -1 ------- null}
+ -t 0.0102017884873346 -s 1 -d 0 -p rtProtoDV -e 4 -c 0 -i 4 -a 0 -x {1.1 0.2 -1 ------- null}
- -t 0.0102017884873346 -s 1 -d 0 -p rtProtoDV -e 4 -c 0 -i 4 -a 0 -x {1.1 0.2 -1 ------- null}
h -t 0.0102017884873346 -s 1 -d 0 -p rtProtoDV -e 4 -c 0 -i 4 -a 0 -x {1.1 0.2 -1 ------- null}
+ -t 0.0102017884873346 -s 1 -d 2 -p rtProtoDV -e 4 -c 0 -i 5 -a 0 -x {1.1 2.2 -1 ------- null}
- -t 0.0102017884873346 -s 1 -d 2 -p rtProtoDV -e 4 -c 0 -i 5 -a 0 -x {1.1 2.2 -1 ------- null}
h -t 0.0102017884873346 -s 1 -d 2 -p rtProtoDV -e 4 -c 0 -i 5 -a 0 -x {1.1 2.2 -1 ------- null}
r -t 0.0102017884873346 -s 0 -d 3 -p rtProtoDV -e 4 -c 0 -i 1 -a 0 -x {0.2 3.1 -1 ------- null}
+ -t 0.0102017884873346 -s 3 -d 0 -p rtProtoDV -e 4 -c 0 -i 6 -a 0 -x {3.1 0.2 -1 ------- null}
- -t 0.0102017884873346 -s 3 -d 0 -p rtProtoDV -e 4 -c 0 -i 6 -a 0 -x {3.1 0.2 -1 ------- null}
h -t 0.0102017884873346 -s 3 -d 0 -p rtProtoDV -e 4 -c 0 -i 6 -a 0 -x {3.1 0.2 -1 ------- null}
+ -t 0.0102017884873346 -s 3 -d 2 -p rtProtoDV -e 4 -c 0 -i 7 -a 0 -x {3.1 2.2 -1 ------- null}
- -t 0.0102017884873346 -s 3 -d 2 -p rtProtoDV -e 4 -c 0 -i 7 -a 0 -x {3.1 2.2 -1 ------- null}
h -t 0.0102017884873346 -s 3 -d 2 -p rtProtoDV -e 4 -c 0 -i 7 -a 0 -x {3.1 2.2 -1 ------- null}
r -t 0.0171343302185826 -s 2 -d 1 -p rtProtoDV -e 4 -c 0 -i 2 -a 0 -x {2.2 1.1 -1 ------- null}
r -t 0.0171343302185826 -s 2 -d 3 -p rtProtoDV -e 4 -c 0 -i 3 -a 0 -x {2.2 3.1 -1 ------- null}
r -t 0.0202337884873346 -s 1 -d 0 -p rtProtoDV -e 4 -c 0 -i 4 -a 0 -x {1.1 0.2 -1 ------- null}
+ -t 0.0202337884873346 -s 0 -d 1 -p rtProtoDV -e 4 -c 0 -i 8 -a 0 -x {0.2 1.1 -1 ------- null}
- -t 0.0202337884873346 -s 0 -d 1 -p rtProtoDV -e 4 -c 0 -i 8 -a 0 -x {0.2 1.1 -1 ------- null}
h -t 0.0202337884873346 -s 0 -d 1 -p rtProtoDV -e 4 -c 0 -i 8 -a 0 -x {0.2 1.1 -1 ------- null}
+ -t 0.0202337884873346 -s 0 -d 3 -p rtProtoDV -e 4 -c 0 -i 9 -a 0 -x {0.2 3.1 -1 ------- null}
- -t 0.0202337884873346 -s 0 -d 3 -p rtProtoDV -e 4 -c 0 -i 9 -a 0 -x {0.2 3.1 -1 ------- null}
h -t 0.0202337884873346 -s 0 -d 3 -p rtProtoDV -e 4 -c 0 -i 9 -a 0 -x {0.2 3.1 -1 ------- null}
r -t 0.0202337884873346 -s 1 -d 2 -p rtProtoDV -e 4 -c 0 -i 5 -a 0 -x {1.1 2.2 -1 ------- null}
+ -t 0.0202337884873346 -s 2 -d 1 -p rtProtoDV -e 4 -c 0 -i 10 -a 0 -x {2.2 1.1 -1 ------- null}
- -t 0.0202337884873346 -s 2 -d 1 -p rtProtoDV -e 4 -c 0 -i 10 -a 0 -x {2.2 1.1 -1 ------- null}
h -t 0.0202337884873346 -s 2 -d 1 -p rtProtoDV -e 4 -c 0 -i 10 -a 0 -x {2.2 1.1 -1 ------- null}
+ -t 0.0202337884873346 -s 2 -d 3 -p rtProtoDV -e 4 -c 0 -i 11 -a 0 -x {2.2 3.1 -1 ------- null}
- -t 0.0202337884873346 -s 2 -d 3 -p rtProtoDV -e 4 -c 0 -i 11 -a 0 -x {2.2 3.1 -1 ------- null}
h -t 0.0202337884873346 -s 2 -d 3 -p rtProtoDV -e 4 -c 0 -i 11 -a 0 -x {2.2 3.1 -1 ------- null}
r -t 0.0202337884873346 -s 3 -d 0 -p rtProtoDV -e 4 -c 0 -i 6 -a 0 -x {3.1 0.2 -1 ------- null}
r -t 0.0202337884873346 -s 3 -d 2 -p rtProtoDV -e 4 -c 0 -i 7 -a 0 -x {3.1 2.2 -1 ------- null}
r -t 0.0302657884873346 -s 0 -d 1 -p rtProtoDV -e 4 -c 0 -i 8 -a 0 -x {0.2 1.1 -1 ------- null}
r -t 0.0302657884873346 -s 0 -d 3 -p rtProtoDV -e 4 -c 0 -i 9 -a 0 -x {0.2 3.1 -1 ------- null}
r -t 0.0302657884873346 -s 2 -d 1 -p rtProtoDV -e 4 -c 0 -i 10 -a 0 -x {2.2 1.1 -1 ------- null}
r -t 0.0302657884873346 -s 2 -d 3 -p rtProtoDV -e 4 -c 0 -i 11 -a 0 -x {2.2 3.1 -1 ------- null}
+ -t 0.04406133552271 -s 3 -d 0 -p rtProtoDV -e 4 -c 0 -i 12 -a 0 -x {3.1 0.2 -1 ------- null}
- -t 0.04406133552271 -s 3 -d 0 -p rtProtoDV -e 4 -c 0 -i 12 -a 0 -x {3.1 0.2 -1 ------- null}
h -t 0.04406133552271 -s 3 -d 0 -p rtProtoDV -e 4 -c 0 -i 12 -a 0 -x {3.1 0.2 -1 ------- null}
+ -t 0.04406133552271 -s 3 -d 2 -p rtProtoDV -e 4 -c 0 -i 13 -a 0 -x {3.1 2.2 -1 ------- null}
- -t 0.04406133552271 -s 3 -d 2 -p rtProtoDV -e 4 -c 0 -i 13 -a 0 -x {3.1 2.2 -1 ------- null}
h -t 0.04406133552271 -s 3 -d 2 -p rtProtoDV -e 4 -c 0 -i 13 -a 0 -x {3.1 2.2 -1 ------- null}
r -t 0.05409333552271 -s 3 -d 0 -p rtProtoDV -e 4 -c 0 -i 12 -a 0 -x {3.1 0.2 -1 ------- null}
r -t 0.05409333552271 -s 3 -d 2 -p rtProtoDV -e 4 -c 0 -i 13 -a 0 -x {3.1 2.2 -1 ------- null}
+ -t 0.277940357931862 -s 1 -d 0 -p rtProtoDV -e 4 -c 0 -i 14 -a 0 -x {1.1 0.2 -1 ------- null}
- -t 0.277940357931862 -s 1 -d 0 -p rtProtoDV -e 4 -c 0 -i 14 -a 0 -x {1.1 0.2 -1 ------- null}
h -t 0.277940357931862 -s 1 -d 0 -p rtProtoDV -e 4 -c 0 -i 14 -a 0 -x {1.1 0.2 -1 ------- null}
+ -t 0.277940357931862 -s 1 -d 2 -p rtProtoDV -e 4 -c 0 -i 15 -a 0 -x {1.1 2.2 -1 ------- null}
- -t 0.277940357931862 -s 1 -d 2 -p rtProtoDV -e 4 -c 0 -i 15 -a 0 -x {1.1 2.2 -1 ------- null}
h -t 0.277940357931862 -s 1 -d 2 -p rtProtoDV -e 4 -c 0 -i 15 -a 0 -x {1.1 2.2 -1 ------- null}
r -t 0.287972357931862 -s 1 -d 0 -p rtProtoDV -e 4 -c 0 -i 14 -a 0 -x {1.1 0.2 -1 ------- null}
r -t 0.287972357931862 -s 1 -d 2 -p rtProtoDV -e 4 -c 0 -i 15 -a 0 -x {1.1 2.2 -1 ------- null}
+ -t 1 -s 0 -d 1 -p tcp -e 40 -c 1 -i 16 -a 1 -x {0.0 2.0 0 ------- null}
- -t 1 -s 0 -d 1 -p tcp -e 40 -c 1 -i 16 -a 1 -x {0.0 2.0 0 ------- null}
h -t 1 -s 0 -d 1 -p tcp -e 40 -c 1 -i 16 -a 1 -x {0.0 2.0 -1 ------- null}
r -t 1.01032 -s 0 -d 1 -p tcp -e 40 -c 1 -i 16 -a 1 -x {0.0 2.0 0 ------- null}
+ -t 1.01032 -s 1 -d 2 -p tcp -e 40 -c 1 -i 16 -a 1 -x {0.0 2.0 0 ------- null}
- -t 1.01032 -s 1 -d 2 -p tcp -e 40 -c 1 -i 16 -a 1 -x {0.0 2.0 0 ------- null}
h -t 1.01032 -s 1 -d 2 -p tcp -e 40 -c 1 -i 16 -a 1 -x {0.0 2.0 -1 ------- null}
r -t 1.02064 -s 1 -d 2 -p tcp -e 40 -c 1 -i 16 -a 1 -x {0.0 2.0 0 ------- null}
+ -t 1.02064 -s 2 -d 1 -p ack -e 40 -c 1 -i 17 -a 1 -x {2.0 0.0 0 ------- null}
- -t 1.02064 -s 2 -d 1 -p ack -e 40 -c 1 -i 17 -a 1 -x {2.0 0.0 0 ------- null}
h -t 1.02064 -s 2 -d 1 -p ack -e 40 -c 1 -i 17 -a 1 -x {2.0 0.0 -1 ------- null}
r -t 1.03096 -s 2 -d 1 -p ack -e 40 -c 1 -i 17 -a 1 -x {2.0 0.0 0 ------- null}
+ -t 1.03096 -s 1 -d 0 -p ack -e 40 -c 1 -i 17 -a 1 -x {2.0 0.0 0 ------- null}
- -t 1.03096 -s 1 -d 0 -p ack -e 40 -c 1 -i 17 -a 1 -x {2.0 0.0 0 ------- null}
h -t 1.03096 -s 1 -d 0 -p ack -e 40 -c 1 -i 17 -a 1 -x {2.0 0.0 -1 ------- null}
r -t 1.04128 -s 1 -d 0 -p ack -e 40 -c 1 -i 17 -a 1 -x {2.0 0.0 0 ------- null}
+ -t 1.04128 -s 0 -d 1 -p tcp -e 1040 -c 1 -i 18 -a 1 -x {0.0 2.0 1 ------- null}
- -t 1.04128 -s 0 -d 1 -p tcp -e 1040 -c 1 -i 18 -a 1 -x {0.0 2.0 1 ------- null}
h -t 1.04128 -s 0 -d 1 -p tcp -e 1040 -c 1 -i 18 -a 1 -x {0.0 2.0 -1 ------- null}
+ -t 1.04128 -s 0 -d 1 -p tcp -e 1040 -c 1 -i 19 -a 1 -x {0.0 2.0 2 ------- null}
- -t 1.0496 -s 0 -d 1 -p tcp -e 1040 -c 1 -i 19 -a 1 -x {0.0 2.0 2 ------- null}
h -t 1.0496 -s 0 -d 1 -p tcp -e 1040 -c 1 -i 19 -a 1 -x {0.0 2.0 -1 ------- null}
r -t 1.0596 -s 0 -d 1 -p tcp -e 1040 -c 1 -i 18 -a 1 -x {0.0 2.0 1 ------- null}
+ -t 1.0596 -s 1 -d 2 -p tcp -e 1040 -c 1 -i 18 -a 1 -x {0.0 2.0 1 ------- null}
- -t 1.0596 -s 1 -d 2 -p tcp -e 1040 -c 1 -i 18 -a 1 -x {0.0 2.0 1 ------- null}
h -t 1.0596 -s 1 -d 2 -p tcp -e 1040 -c 1 -i 18 -a 1 -x {0.0 2.0 -1 ------- null}
r -t 1.06792 -s 0 -d 1 -p tcp -e 1040 -c 1 -i 19 -a 1 -x {0.0 2.0 2 ------- null}
+ -t 1.06792 -s 1 -d 2 -p tcp -e 1040 -c 1 -i 19 -a 1 -x {0.0 2.0 2 ------- null}
- -t 1.06792 -s 1 -d 2 -p tcp -e 1040 -c 1 -i 19 -a 1 -x {0.0 2.0 2 ------- null}
h -t 1.06792 -s 1 -d 2 -p tcp -e 1040 -c 1 -i 19 -a 1 -x {0.0 2.0 -1 ------- null}
r -t 1.07792 -s 1 -d 2 -p tcp -e 1040 -c 1 -i 18 -a 1 -x {0.0 2.0 1 ------- null}
+ -t 1.07792 -s 2 -d 1 -p ack -e 40 -c 1 -i 20 -a 1 -x {2.0 0.0 1 ------- null}
- -t 1.07792 -s 2 -d 1 -p ack -e 40 -c 1 -i 20 -a 1 -x {2.0 0.0 1 ------- null}
h -t 1.07792 -s 2 -d 1 -p ack -e 40 -c 1 -i 20 -a 1 -x {2.0 0.0 -1 ------- null}
r -t 1.08624 -s 1 -d 2 -p tcp -e 1040 -c 1 -i 19 -a 1 -x {0.0 2.0 2 ------- null}
+ -t 1.08624 -s 2 -d 1 -p ack -e 40 -c 1 -i 21 -a 1 -x {2.0 0.0 2 ------- null}
- -t 1.08624 -s 2 -d 1 -p ack -e 40 -c 1 -i 21 -a 1 -x {2.0 0.0 2 ------- null}
h -t 1.08624 -s 2 -d 1 -p ack -e 40 -c 1 -i 21 -a 1 -x {2.0 0.0 -1 ------- null}
r -t 1.08824 -s 2 -d 1 -p ack -e 40 -c 1 -i 20 -a 1 -x {2.0 0.0 1 ------- null}
+ -t 1.08824 -s 1 -d 0 -p ack -e 40 -c 1 -i 20 -a 1 -x {2.0 0.0 1 ------- null}
- -t 1.08824 -s 1 -d 0 -p ack -e 40 -c 1 -i 20 -a 1 -x {2.0 0.0 1 ------- null}
h -t 1.08824 -s 1 -d 0 -p ack -e 40 -c 1 -i 20 -a 1 -x {2.0 0.0 -1 ------- null}
r -t 1.09656 -s 2 -d 1 -p ack -e 40 -c 1 -i 21 -a 1 -x {2.0 0.0 2 ------- null}
+ -t 1.09656 -s 1 -d 0 -p ack -e 40 -c 1 -i 21 -a 1 -x {2.0 0.0 2 ------- null}
- -t 1.09656 -s 1 -d 0 -p ack -e 40 -c 1 -i 21 -a 1 -x {2.0 0.0 2 ------- null}
h -t 1.09656 -s 1 -d 0 -p ack -e 40 -c 1 -i 21 -a 1 -x {2.0 0.0 -1 ------- null}
r -t 1.09856 -s 1 -d 0 -p ack -e 40 -c 1 -i 20 -a 1 -x {2.0 0.0 1 ------- null}
+ -t 1.09856 -s 0 -d 1 -p tcp -e 1040 -c 1 -i 22 -a 1 -x {0.0 2.0 3 ------- null}
- -t 1.09856 -s 0 -d 1 -p tcp -e 1040 -c 1 -i 22 -a 1 -x {0.0 2.0 3 ------- null}
h -t 1.09856 -s 0 -d 1 -p tcp -e 1040 -c 1 -i 22 -a 1 -x {0.0 2.0 -1 ------- null}
+ -t 1.09856 -s 0 -d 1 -p tcp -e 1040 -c 1 -i 23 -a 1 -x {0.0 2.0 4 ------- null}
r -t 1.10688 -s 1 -d 0 -p ack -e 40 -c 1 -i 21 -a 1 -x {2.0 0.0 2 ------- null}
+ -t 1.10688 -s 0 -d 1 -p tcp -e 1040 -c 1 -i 24 -a 1 -x {0.0 2.0 5 ------- null}
+ -t 1.10688 -s 0 -d 1 -p tcp -e 1040 -c 1 -i 25 -a 1 -x {0.0 2.0 6 ------- null}
- -t 1.10688 -s 0 -d 1 -p tcp -e 1040 -c 1 -i 23 -a 1 -x {0.0 2.0 4 ------- null}
h -t 1.10688 -s 0 -d 1 -p tcp -e 1040 -c 1 -i 23 -a 1 -x {0.0 2.0 -1 ------- null}
- -t 1.1152 -s 0 -d 1 -p tcp -e 1040 -c 1 -i 24 -a 1 -x {0.0 2.0 5 ------- null}
h -t 1.1152 -s 0 -d 1 -p tcp -e 1040 -c 1 -i 24 -a 1 -x {0.0 2.0 -1 ------- null}
r -t 1.11688 -s 0 -d 1 -p tcp -e 1040 -c 1 -i 22 -a 1 -x {0.0 2.0 3 ------- null}
+ -t 1.11688 -s 1 -d 2 -p tcp -e 1040 -c 1 -i 22 -a 1 -x {0.0 2.0 3 ------- null}
- -t 1.11688 -s 1 -d 2 -p tcp -e 1040 -c 1 -i 22 -a 1 -x {0.0 2.0 3 ------- null}
h -t 1.11688 -s 1 -d 2 -p tcp -e 1040 -c 1 -i 22 -a 1 -x {0.0 2.0 -1 ------- null}
- -t 1.12352 -s 0 -d 1 -p tcp -e 1040 -c 1 -i 25 -a 1 -x {0.0 2.0 6 ------- null}
h -t 1.12352 -s 0 -d 1 -p tcp -e 1040 -c 1 -i 25 -a 1 -x {0.0 2.0 -1 ------- null}
r -t 1.1252 -s 0 -d 1 -p tcp -e 1040 -c 1 -i 23 -a 1 -x {0.0 2.0 4 ------- null}
+ -t 1.1252 -s 1 -d 2 -p tcp -e 1040 -c 1 -i 23 -a 1 -x {0.0 2.0 4 ------- null}
- -t 1.1252 -s 1 -d 2 -p tcp -e 1040 -c 1 -i 23 -a 1 -x {0.0 2.0 4 ------- null}
h -t 1.1252 -s 1 -d 2 -p tcp -e 1040 -c 1 -i 23 -a 1 -x {0.0 2.0 -1 ------- null}
r -t 1.13352 -s 0 -d 1 -p tcp -e 1040 -c 1 -i 24 -a 1 -x {0.0 2.0 5 ------- null}
+ -t 1.13352 -s 1 -d 2 -p tcp -e 1040 -c 1 -i 24 -a 1 -x {0.0 2.0 5 ------- null}
- -t 1.13352 -s 1 -d 2 -p tcp -e 1040 -c 1 -i 24 -a 1 -x {0.0 2.0 5 ------- null}
h -t 1.13352 -s 1 -d 2 -p tcp -e 1040 -c 1 -i 24 -a 1 -x {0.0 2.0 -1 ------- null}
r -t 1.1352 -s 1 -d 2 -p tcp -e 1040 -c 1 -i 22 -a 1 -x {0.0 2.0 3 ------- null}
+ -t 1.1352 -s 2 -d 1 -p ack -e 40 -c 1 -i 26 -a 1 -x {2.0 0.0 3 ------- null}
- -t 1.1352 -s 2 -d 1 -p ack -e 40 -c 1 -i 26 -a 1 -x {2.0 0.0 3 ------- null}
h -t 1.1352 -s 2 -d 1 -p ack -e 40 -c 1 -i 26 -a 1 -x {2.0 0.0 -1 ------- null}
r -t 1.14184 -s 0 -d 1 -p tcp -e 1040 -c 1 -i 25 -a 1 -x {0.0 2.0 6 ------- null}
+ -t 1.14184 -s 1 -d 2 -p tcp -e 1040 -c 1 -i 25 -a 1 -x {0.0 2.0 6 ------- null}
- -t 1.14184 -s 1 -d 2 -p tcp -e 1040 -c 1 -i 25 -a 1 -x {0.0 2.0 6 ------- null}
h -t 1.14184 -s 1 -d 2 -p tcp -e 1040 -c 1 -i 25 -a 1 -x {0.0 2.0 -1 ------- null}
r -t 1.14352 -s 1 -d 2 -p tcp -e 1040 -c 1 -i 23 -a 1 -x {0.0 2.0 4 ------- null}
+ -t 1.14352 -s 2 -d 1 -p ack -e 40 -c 1 -i 27 -a 1 -x {2.0 0.0 4 ------- null}
- -t 1.14352 -s 2 -d 1 -p ack -e 40 -c 1 -i 27 -a 1 -x {2.0 0.0 4 ------- null}
h -t 1.14352 -s 2 -d 1 -p ack -e 40 -c 1 -i 27 -a 1 -x {2.0 0.0 -1 ------- null}
r -t 1.14552 -s 2 -d 1 -p ack -e 40 -c 1 -i 26 -a 1 -x {2.0 0.0 3 ------- null}
+ -t 1.14552 -s 1 -d 0 -p ack -e 40 -c 1 -i 26 -a 1 -x {2.0 0.0 3 ------- null}
- -t 1.14552 -s 1 -d 0 -p ack -e 40 -c 1 -i 26 -a 1 -x {2.0 0.0 3 ------- null}
h -t 1.14552 -s 1 -d 0 -p ack -e 40 -c 1 -i 26 -a 1 -x {2.0 0.0 -1 ------- null}
r -t 1.15184 -s 1 -d 2 -p tcp -e 1040 -c 1 -i 24 -a 1 -x {0.0 2.0 5 ------- null}
+ -t 1.15184 -s 2 -d 1 -p ack -e 40 -c 1 -i 28 -a 1 -x {2.0 0.0 5 ------- null}
- -t 1.15184 -s 2 -d 1 -p ack -e 40 -c 1 -i 28 -a 1 -x {2.0 0.0 5 ------- null}
h -t 1.15184 -s 2 -d 1 -p ack -e 40 -c 1 -i 28 -a 1 -x {2.0 0.0 -1 ------- null}
r -t 1.15384 -s 2 -d 1 -p ack -e 40 -c 1 -i 27 -a 1 -x {2.0 0.0 4 ------- null}
+ -t 1.15384 -s 1 -d 0 -p ack -e 40 -c 1 -i 27 -a 1 -x {2.0 0.0 4 ------- null}
- -t 1.15384 -s 1 -d 0 -p ack -e 40 -c 1 -i 27 -a 1 -x {2.0 0.0 4 ------- null}
h -t 1.15384 -s 1 -d 0 -p ack -e 40 -c 1 -i 27 -a 1 -x {2.0 0.0 -1 ------- null}
r -t 1.15584 -s 1 -d 0 -p ack -e 40 -c 1 -i 26 -a 1 -x {2.0 0.0 3 ------- null}
+ -t 1.15584 -s 0 -d 1 -p tcp -e 1040 -c 1 -i 29 -a 1 -x {0.0 2.0 7 ------- null}
- -t 1.15584 -s 0 -d 1 -p tcp -e 1040 -c 1 -i 29 -a 1 -x {0.0 2.0 7 ------- null}
h -t 1.15584 -s 0 -d 1 -p tcp -e 1040 -c 1 -i 29 -a 1 -x {0.0 2.0 -1 ------- null}
+ -t 1.15584 -s 0 -d 1 -p tcp -e 1040 -c 1 -i 30 -a 1 -x {0.0 2.0 8 ------- null}
r -t 1.16016 -s 1 -d 2 -p tcp -e 1040 -c 1 -i 25 -a 1 -x {0.0 2.0 6 ------- null}
+ -t 1.16016 -s 2 -d 1 -p ack -e 40 -c 1 -i 31 -a 1 -x {2.0 0.0 6 ------- null}
- -t 1.16016 -s 2 -d 1 -p ack -e 40 -c 1 -i 31 -a 1 -x {2.0 0.0 6 ------- null}
h -t 1.16016 -s 2 -d 1 -p ack -e 40 -c 1 -i 31 -a 1 -x {2.0 0.0 -1 ------- null}
r -t 1.16216 -s 2 -d 1 -p ack -e 40 -c 1 -i 28 -a 1 -x {2.0 0.0 5 ------- null}
+ -t 1.16216 -s 1 -d 0 -p ack -e 40 -c 1 -i 28 -a 1 -x {2.0 0.0 5 ------- null}
- -t 1.16216 -s 1 -d 0 -p ack -e 40 -c 1 -i 28 -a 1 -x {2.0 0.0 5 ------- null}
h -t 1.16216 -s 1 -d 0 -p ack -e 40 -c 1 -i 28 -a 1 -x {2.0 0.0 -1 ------- null}
r -t 1.16416 -s 1 -d 0 -p ack -e 40 -c 1 -i 27 -a 1 -x {2.0 0.0 4 ------- null}
+ -t 1.16416 -s 0 -d 1 -p tcp -e 1040 -c 1 -i 32 -a 1 -x {0.0 2.0 9 ------- null}
+ -t 1.16416 -s 0 -d 1 -p tcp -e 1040 -c 1 -i 33 -a 1 -x {0.0 2.0 10 ------- null}
- -t 1.16416 -s 0 -d 1 -p tcp -e 1040 -c 1 -i 30 -a 1 -x {0.0 2.0 8 ------- null}
h -t 1.16416 -s 0 -d 1 -p tcp -e 1040 -c 1 -i 30 -a 1 -x {0.0 2.0 -1 ------- null}
r -t 1.17048 -s 2 -d 1 -p ack -e 40 -c 1 -i 31 -a 1 -x {2.0 0.0 6 ------- null}
+ -t 1.17048 -s 1 -d 0 -p ack -e 40 -c 1 -i 31 -a 1 -x {2.0 0.0 6 ------- null}
- -t 1.17048 -s 1 -d 0 -p ack -e 40 -c 1 -i 31 -a 1 -x {2.0 0.0 6 ------- null}
h -t 1.17048 -s 1 -d 0 -p ack -e 40 -c 1 -i 31 -a 1 -x {2.0 0.0 -1 ------- null}
r -t 1.17248 -s 1 -d 0 -p ack -e 40 -c 1 -i 28 -a 1 -x {2.0 0.0 5 ------- null}
+ -t 1.17248 -s 0 -d 1 -p tcp -e 1040 -c 1 -i 34 -a 1 -x {0.0 2.0 11 ------- null}
+ -t 1.17248 -s 0 -d 1 -p tcp -e 1040 -c 1 -i 35 -a 1 -x {0.0 2.0 12 ------- null}
- -t 1.17248 -s 0 -d 1 -p tcp -e 1040 -c 1 -i 32 -a 1 -x {0.0 2.0 9 ------- null}
h -t 1.17248 -s 0 -d 1 -p tcp -e 1040 -c 1 -i 32 -a 1 -x {0.0 2.0 -1 ------- null}
r -t 1.17416 -s 0 -d 1 -p tcp -e 1040 -c 1 -i 29 -a 1 -x {0.0 2.0 7 ------- null}
+ -t 1.17416 -s 1 -d 2 -p tcp -e 1040 -c 1 -i 29 -a 1 -x {0.0 2.0 7 ------- null}
- -t 1.17416 -s 1 -d 2 -p tcp -e 1040 -c 1 -i 29 -a 1 -x {0.0 2.0 7 ------- null}
h -t 1.17416 -s 1 -d 2 -p tcp -e 1040 -c 1 -i 29 -a 1 -x {0.0 2.0 -1 ------- null}
r -t 1.1808 -s 1 -d 0 -p ack -e 40 -c 1 -i 31 -a 1 -x {2.0 0.0 6 ------- null}
+ -t 1.1808 -s 0 -d 1 -p tcp -e 1040 -c 1 -i 36 -a 1 -x {0.0 2.0 13 ------- null}
+ -t 1.1808 -s 0 -d 1 -p tcp -e 1040 -c 1 -i 37 -a 1 -x {0.0 2.0 14 ------- null}
- -t 1.1808 -s 0 -d 1 -p tcp -e 1040 -c 1 -i 33 -a 1 -x {0.0 2.0 10 ------- null}
h -t 1.1808 -s 0 -d 1 -p tcp -e 1040 -c 1 -i 33 -a 1 -x {0.0 2.0 -1 ------- null}
r -t 1.18248 -s 0 -d 1 -p tcp -e 1040 -c 1 -i 30 -a 1 -x {0.0 2.0 8 ------- null}
+ -t 1.18248 -s 1 -d 2 -p tcp -e 1040 -c 1 -i 30 -a 1 -x {0.0 2.0 8 ------- null}
- -t 1.18248 -s 1 -d 2 -p tcp -e 1040 -c 1 -i 30 -a 1 -x {0.0 2.0 8 ------- null}
h -t 1.18248 -s 1 -d 2 -p tcp -e 1040 -c 1 -i 30 -a 1 -x {0.0 2.0 -1 ------- null}
- -t 1.18912 -s 0 -d 1 -p tcp -e 1040 -c 1 -i 34 -a 1 -x {0.0 2.0 11 ------- null}
h -t 1.18912 -s 0 -d 1 -p tcp -e 1040 -c 1 -i 34 -a 1 -x {0.0 2.0 -1 ------- null}
r -t 1.1908 -s 0 -d 1 -p tcp -e 1040 -c 1 -i 32 -a 1 -x {0.0 2.0 9 ------- null}
+ -t 1.1908 -s 1 -d 2 -p tcp -e 1040 -c 1 -i 32 -a 1 -x {0.0 2.0 9 ------- null}
- -t 1.1908 -s 1 -d 2 -p tcp -e 1040 -c 1 -i 32 -a 1 -x {0.0 2.0 9 ------- null}
h -t 1.1908 -s 1 -d 2 -p tcp -e 1040 -c 1 -i 32 -a 1 -x {0.0 2.0 -1 ------- null}
r -t 1.19248 -s 1 -d 2 -p tcp -e 1040 -c 1 -i 29 -a 1 -x {0.0 2.0 7 ------- null}
+ -t 1.19248 -s 2 -d 1 -p ack -e 40 -c 1 -i 38 -a 1 -x {2.0 0.0 7 ------- null}
- -t 1.19248 -s 2 -d 1 -p ack -e 40 -c 1 -i 38 -a 1 -x {2.0 0.0 7 ------- null}
h -t 1.19248 -s 2 -d 1 -p ack -e 40 -c 1 -i 38 -a 1 -x {2.0 0.0 -1 ------- null}
- -t 1.19744 -s 0 -d 1 -p tcp -e 1040 -c 1 -i 35 -a 1 -x {0.0 2.0 12 ------- null}
h -t 1.19744 -s 0 -d 1 -p tcp -e 1040 -c 1 -i 35 -a 1 -x {0.0 2.0 -1 ------- null}
r -t 1.19912 -s 0 -d 1 -p tcp -e 1040 -c 1 -i 33 -a 1 -x {0.0 2.0 10 ------- null}
+ -t 1.19912 -s 1 -d 2 -p tcp -e 1040 -c 1 -i 33 -a 1 -x {0.0 2.0 10 ------- null}
- -t 1.19912 -s 1 -d 2 -p tcp -e 1040 -c 1 -i 33 -a 1 -x {0.0 2.0 10 ------- null}
h -t 1.19912 -s 1 -d 2 -p tcp -e 1040 -c 1 -i 33 -a 1 -x {0.0 2.0 -1 ------- null}
r -t 1.2008 -s 1 -d 2 -p tcp -e 1040 -c 1 -i 30 -a 1 -x {0.0 2.0 8 ------- null}
+ -t 1.2008 -s 2 -d 1 -p ack -e 40 -c 1 -i 39 -a 1 -x {2.0 0.0 8 ------- null}
- -t 1.2008 -s 2 -d 1 -p ack -e 40 -c 1 -i 39 -a 1 -x {2.0 0.0 8 ------- null}
h -t 1.2008 -s 2 -d 1 -p ack -e 40 -c 1 -i 39 -a 1 -x {2.0 0.0 -1 ------- null}
r -t 1.2028 -s 2 -d 1 -p ack -e 40 -c 1 -i 38 -a 1 -x {2.0 0.0 7 ------- null}
+ -t 1.2028 -s 1 -d 0 -p ack -e 40 -c 1 -i 38 -a 1 -x {2.0 0.0 7 ------- null}
- -t 1.2028 -s 1 -d 0 -p ack -e 40 -c 1 -i 38 -a 1 -x {2.0 0.0 7 ------- null}
h -t 1.2028 -s 1 -d 0 -p ack -e 40 -c 1 -i 38 -a 1 -x {2.0 0.0 -1 ------- null}
- -t 1.20576 -s 0 -d 1 -p tcp -e 1040 -c 1 -i 36 -a 1 -x {0.0 2.0 13 ------- null}
h -t 1.20576 -s 0 -d 1 -p tcp -e 1040 -c 1 -i 36 -a 1 -x {0.0 2.0 -1 ------- null}
r -t 1.20744 -s 0 -d 1 -p tcp -e 1040 -c 1 -i 34 -a 1 -x {0.0 2.0 11 ------- null}
+ -t 1.20744 -s 1 -d 2 -p tcp -e 1040 -c 1 -i 34 -a 1 -x {0.0 2.0 11 ------- null}
- -t 1.20744 -s 1 -d 2 -p tcp -e 1040 -c 1 -i 34 -a 1 -x {0.0 2.0 11 ------- null}
h -t 1.20744 -s 1 -d 2 -p tcp -e 1040 -c 1 -i 34 -a 1 -x {0.0 2.0 -1 ------- null}
r -t 1.20912 -s 1 -d 2 -p tcp -e 1040 -c 1 -i 32 -a 1 -x {0.0 2.0 9 ------- null}
+ -t 1.20912 -s 2 -d 1 -p ack -e 40 -c 1 -i 40 -a 1 -x {2.0 0.0 9 ------- null}
- -t 1.20912 -s 2 -d 1 -p ack -e 40 -c 1 -i 40 -a 1 -x {2.0 0.0 9 ------- null}
h -t 1.20912 -s 2 -d 1 -p ack -e 40 -c 1 -i 40 -a 1 -x {2.0 0.0 -1 ------- null}
r -t 1.21112 -s 2 -d 1 -p ack -e 40 -c 1 -i 39 -a 1 -x {2.0 0.0 8 ------- null}
+ -t 1.21112 -s 1 -d 0 -p ack -e 40 -c 1 -i 39 -a 1 -x {2.0 0.0 8 ------- null}
- -t 1.21112 -s 1 -d 0 -p ack -e 40 -c 1 -i 39 -a 1 -x {2.0 0.0 8 ------- null}
h -t 1.21112 -s 1 -d 0 -p ack -e 40 -c 1 -i 39 -a 1 -x {2.0 0.0 -1 ------- null}
r -t 1.21312 -s 1 -d 0 -p ack -e 40 -c 1 -i 38 -a 1 -x {2.0 0.0 7 ------- null}
+ -t 1.21312 -s 0 -d 1 -p tcp -e 1040 -c 1 -i 41 -a 1 -x {0.0 2.0 15 ------- null}
+ -t 1.21312 -s 0 -d 1 -p tcp -e 1040 -c 1 -i 42 -a 1 -x {0.0 2.0 16 ------- null}
- -t 1.21408 -s 0 -d 1 -p tcp -e 1040 -c 1 -i 37 -a 1 -x {0.0 2.0 14 ------- null}
h -t 1.21408 -s 0 -d 1 -p tcp -e 1040 -c 1 -i 37 -a 1 -x {0.0 2.0 -1 ------- null}
r -t 1.21576 -s 0 -d 1 -p tcp -e 1040 -c 1 -i 35 -a 1 -x {0.0 2.0 12 ------- null}
+ -t 1.21576 -s 1 -d 2 -p tcp -e 1040 -c 1 -i 35 -a 1 -x {0.0 2.0 12 ------- null}
- -t 1.21576 -s 1 -d 2 -p tcp -e 1040 -c 1 -i 35 -a 1 -x {0.0 2.0 12 ------- null}
h -t 1.21576 -s 1 -d 2 -p tcp -e 1040 -c 1 -i 35 -a 1 -x {0.0 2.0 -1 ------- null}
r -t 1.21744 -s 1 -d 2 -p tcp -e 1040 -c 1 -i 33 -a 1 -x {0.0 2.0 10 ------- null}
+ -t 1.21744 -s 2 -d 1 -p ack -e 40 -c 1 -i 43 -a 1 -x {2.0 0.0 10 ------- null}
- -t 1.21744 -s 2 -d 1 -p ack -e 40 -c 1 -i 43 -a 1 -x {2.0 0.0 10 ------- null}
h -t 1.21744 -s 2 -d 1 -p ack -e 40 -c 1 -i 43 -a 1 -x {2.0 0.0 -1 ------- null}
r -t 1.21944 -s 2 -d 1 -p ack -e 40 -c 1 -i 40 -a 1 -x {2.0 0.0 9 ------- null}
+ -t 1.21944 -s 1 -d 0 -p ack -e 40 -c 1 -i 40 -a 1 -x {2.0 0.0 9 ------- null}
- -t 1.21944 -s 1 -d 0 -p ack -e 40 -c 1 -i 40 -a 1 -x {2.0 0.0 9 ------- null}
h -t 1.21944 -s 1 -d 0 -p ack -e 40 -c 1 -i 40 -a 1 -x {2.0 0.0 -1 ------- null}
r -t 1.22144 -s 1 -d 0 -p ack -e 40 -c 1 -i 39 -a 1 -x {2.0 0.0 8 ------- null}
+ -t 1.22144 -s 0 -d 1 -p tcp -e 1040 -c 1 -i 44 -a 1 -x {0.0 2.0 17 ------- null}
+ -t 1.22144 -s 0 -d 1 -p tcp -e 1040 -c 1 -i 45 -a 1 -x {0.0 2.0 18 ------- null}
- -t 1.2224 -s 0 -d 1 -p tcp -e 1040 -c 1 -i 41 -a 1 -x {0.0 2.0 15 ------- null}
h -t 1.2224 -s 0 -d 1 -p tcp -e 1040 -c 1 -i 41 -a 1 -x {0.0 2.0 -1 ------- null}
r -t 1.22408 -s 0 -d 1 -p tcp -e 1040 -c 1 -i 36 -a 1 -x {0.0 2.0 13 ------- null}
+ -t 1.22408 -s 1 -d 2 -p tcp -e 1040 -c 1 -i 36 -a 1 -x {0.0 2.0 13 ------- null}
- -t 1.22408 -s 1 -d 2 -p tcp -e 1040 -c 1 -i 36 -a 1 -x {0.0 2.0 13 ------- null}
h -t 1.22408 -s 1 -d 2 -p tcp -e 1040 -c 1 -i 36 -a 1 -x {0.0 2.0 -1 ------- null}
r -t 1.22576 -s 1 -d 2 -p tcp -e 1040 -c 1 -i 34 -a 1 -x {0.0 2.0 11 ------- null}
+ -t 1.22576 -s 2 -d 1 -p ack -e 40 -c 1 -i 46 -a 1 -x {2.0 0.0 11 ------- null}
- -t 1.22576 -s 2 -d 1 -p ack -e 40 -c 1 -i 46 -a 1 -x {2.0 0.0 11 ------- null}
h -t 1.22576 -s 2 -d 1 -p ack -e 40 -c 1 -i 46 -a 1 -x {2.0 0.0 -1 ------- null}
r -t 1.22776 -s 2 -d 1 -p ack -e 40 -c 1 -i 43 -a 1 -x {2.0 0.0 10 ------- null}
+ -t 1.22776 -s 1 -d 0 -p ack -e 40 -c 1 -i 43 -a 1 -x {2.0 0.0 10 ------- null}
- -t 1.22776 -s 1 -d 0 -p ack -e 40 -c 1 -i 43 -a 1 -x {2.0 0.0 10 ------- null}
h -t 1.22776 -s 1 -d 0 -p ack -e 40 -c 1 -i 43 -a 1 -x {2.0 0.0 -1 ------- null}
r -t 1.22976 -s 1 -d 0 -p ack -e 40 -c 1 -i 40 -a 1 -x {2.0 0.0 9 ------- null}
+ -t 1.22976 -s 0 -d 1 -p tcp -e 1040 -c 1 -i 47 -a 1 -x {0.0 2.0 19 ------- null}
+ -t 1.22976 -s 0 -d 1 -p tcp -e 1040 -c 1 -i 48 -a 1 -x {0.0 2.0 20 ------- null}
- -t 1.23072 -s 0 -d 1 -p tcp -e 1040 -c 1 -i 42 -a 1 -x {0.0 2.0 16 ------- null}
h -t 1.23072 -s 0 -d 1 -p tcp -e 1040 -c 1 -i 42 -a 1 -x {0.0 2.0 -1 ------- null}
r -t 1.2324 -s 0 -d 1 -p tcp -e 1040 -c 1 -i 37 -a 1 -x {0.0 2.0 14 ------- null}
+ -t 1.2324 -s 1 -d 2 -p tcp -e 1040 -c 1 -i 37 -a 1 -x {0.0 2.0 14 ------- null}
- -t 1.2324 -s 1 -d 2 -p tcp -e 1040 -c 1 -i 37 -a 1 -x {0.0 2.0 14 ------- null}
h -t 1.2324 -s 1 -d 2 -p tcp -e 1040 -c 1 -i 37 -a 1 -x {0.0 2.0 -1 ------- null}
r -t 1.23408 -s 1 -d 2 -p tcp -e 1040 -c 1 -i 35 -a 1 -x {0.0 2.0 12 ------- null}
+ -t 1.23408 -s 2 -d 1 -p ack -e 40 -c 1 -i 49 -a 1 -x {2.0 0.0 12 ------- null}
- -t 1.23408 -s 2 -d 1 -p ack -e 40 -c 1 -i 49 -a 1 -x {2.0 0.0 12 ------- null}
h -t 1.23408 -s 2 -d 1 -p ack -e 40 -c 1 -i 49 -a 1 -x {2.0 0.0 -1 ------- null}
r -t 1.23608 -s 2 -d 1 -p ack -e 40 -c 1 -i 46 -a 1 -x {2.0 0.0 11 ------- null}
+ -t 1.23608 -s 1 -d 0 -p ack -e 40 -c 1 -i 46 -a 1 -x {2.0 0.0 11 ------- null}
- -t 1.23608 -s 1 -d 0 -p ack -e 40 -c 1 -i 46 -a 1 -x {2.0 0.0 11 ------- null}
h -t 1.23608 -s 1 -d 0 -p ack -e 40 -c 1 -i 46 -a 1 -x {2.0 0.0 -1 ------- null}
r -t 1.23808 -s 1 -d 0 -p ack -e 40 -c 1 -i 43 -a 1 -x {2.0 0.0 10 ------- null}
+ -t 1.23808 -s 0 -d 1 -p tcp -e 1040 -c 1 -i 50 -a 1 -x {0.0 2.0 21 ------- null}
+ -t 1.23808 -s 0 -d 1 -p tcp -e 1040 -c 1 -i 51 -a 1 -x {0.0 2.0 22 ------- null}
- -t 1.23904 -s 0 -d 1 -p tcp -e 1040 -c 1 -i 44 -a 1 -x {0.0 2.0 17 ------- null}
h -t 1.23904 -s 0 -d 1 -p tcp -e 1040 -c 1 -i 44 -a 1 -x {0.0 2.0 -1 ------- null}
r -t 1.24072 -s 0 -d 1 -p tcp -e 1040 -c 1 -i 41 -a 1 -x {0.0 2.0 15 ------- null}
+ -t 1.24072 -s 1 -d 2 -p tcp -e 1040 -c 1 -i 41 -a 1 -x {0.0 2.0 15 ------- null}
- -t 1.24072 -s 1 -d 2 -p tcp -e 1040 -c 1 -i 41 -a 1 -x {0.0 2.0 15 ------- null}
h -t 1.24072 -s 1 -d 2 -p tcp -e 1040 -c 1 -i 41 -a 1 -x {0.0 2.0 -1 ------- null}
r -t 1.2424 -s 1 -d 2 -p tcp -e 1040 -c 1 -i 36 -a 1 -x {0.0 2.0 13 ------- null}
+ -t 1.2424 -s 2 -d 1 -p ack -e 40 -c 1 -i 52 -a 1 -x {2.0 0.0 13 ------- null}
- -t 1.2424 -s 2 -d 1 -p ack -e 40 -c 1 -i 52 -a 1 -x {2.0 0.0 13 ------- null}
h -t 1.2424 -s 2 -d 1 -p ack -e 40 -c 1 -i 52 -a 1 -x {2.0 0.0 -1 ------- null}
r -t 1.2444 -s 2 -d 1 -p ack -e 40 -c 1 -i 49 -a 1 -x {2.0 0.0 12 ------- null}
+ -t 1.2444 -s 1 -d 0 -p ack -e 40 -c 1 -i 49 -a 1 -x {2.0 0.0 12 ------- null}
- -t 1.2444 -s 1 -d 0 -p ack -e 40 -c 1 -i 49 -a 1 -x {2.0 0.0 12 ------- null}
h -t 1.2444 -s 1 -d 0 -p ack -e 40 -c 1 -i 49 -a 1 -x {2.0 0.0 -1 ------- null}
r -t 1.2464 -s 1 -d 0 -p ack -e 40 -c 1 -i 46 -a 1 -x {2.0 0.0 11 ------- null}
+ -t 1.2464 -s 0 -d 1 -p tcp -e 1040 -c 1 -i 53 -a 1 -x {0.0 2.0 23 ------- null}
+ -t 1.2464 -s 0 -d 1 -p tcp -e 1040 -c 1 -i 54 -a 1 -x {0.0 2.0 24 ------- null}
- -t 1.24736 -s 0 -d 1 -p tcp -e 1040 -c 1 -i 45 -a 1 -x {0.0 2.0 18 ------- null}
h -t 1.24736 -s 0 -d 1 -p tcp -e 1040 -c 1 -i 45 -a 1 -x {0.0 2.0 -1 ------- null}
r -t 1.24904 -s 0 -d 1 -p tcp -e 1040 -c 1 -i 42 -a 1 -x {0.0 2.0 16 ------- null}
+ -t 1.24904 -s 1 -d 2 -p tcp -e 1040 -c 1 -i 42 -a 1 -x {0.0 2.0 16 ------- null}
- -t 1.24904 -s 1 -d 2 -p tcp -e 1040 -c 1 -i 42 -a 1 -x {0.0 2.0 16 ------- null}
h -t 1.24904 -s 1 -d 2 -p tcp -e 1040 -c 1 -i 42 -a 1 -x {0.0 2.0 -1 ------- null}
r -t 1.25072 -s 1 -d 2 -p tcp -e 1040 -c 1 -i 37 -a 1 -x {0.0 2.0 14 ------- null}
+ -t 1.25072 -s 2 -d 1 -p ack -e 40 -c 1 -i 55 -a 1 -x {2.0 0.0 14 ------- null}
- -t 1.25072 -s 2 -d 1 -p ack -e 40 -c 1 -i 55 -a 1 -x {2.0 0.0 14 ------- null}
h -t 1.25072 -s 2 -d 1 -p ack -e 40 -c 1 -i 55 -a 1 -x {2.0 0.0 -1 ------- null}
r -t 1.25272 -s 2 -d 1 -p ack -e 40 -c 1 -i 52 -a 1 -x {2.0 0.0 13 ------- null}
+ -t 1.25272 -s 1 -d 0 -p ack -e 40 -c 1 -i 52 -a 1 -x {2.0 0.0 13 ------- null}
- -t 1.25272 -s 1 -d 0 -p ack -e 40 -c 1 -i 52 -a 1 -x {2.0 0.0 13 ------- null}
h -t 1.25272 -s 1 -d 0 -p ack -e 40 -c 1 -i 52 -a 1 -x {2.0 0.0 -1 ------- null}
r -t 1.25472 -s 1 -d 0 -p ack -e 40 -c 1 -i 49 -a 1 -x {2.0 0.0 12 ------- null}
+ -t 1.25472 -s 0 -d 1 -p tcp -e 1040 -c 1 -i 56 -a 1 -x {0.0 2.0 25 ------- null}
+ -t 1.25472 -s 0 -d 1 -p tcp -e 1040 -c 1 -i 57 -a 1 -x {0.0 2.0 26 ------- null}
- -t 1.25568 -s 0 -d 1 -p tcp -e 1040 -c 1 -i 47 -a 1 -x {0.0 2.0 19 ------- null}
h -t 1.25568 -s 0 -d 1 -p tcp -e 1040 -c 1 -i 47 -a 1 -x {0.0 2.0 -1 ------- null}
r -t 1.25736 -s 0 -d 1 -p tcp -e 1040 -c 1 -i 44 -a 1 -x {0.0 2.0 17 ------- null}
+ -t 1.25736 -s 1 -d 2 -p tcp -e 1040 -c 1 -i 44 -a 1 -x {0.0 2.0 17 ------- null}
- -t 1.25736 -s 1 -d 2 -p tcp -e 1040 -c 1 -i 44 -a 1 -x {0.0 2.0 17 ------- null}
h -t 1.25736 -s 1 -d 2 -p tcp -e 1040 -c 1 -i 44 -a 1 -x {0.0 2.0 -1 ------- null}
r -t 1.25904 -s 1 -d 2 -p tcp -e 1040 -c 1 -i 41 -a 1 -x {0.0 2.0 15 ------- null}
+ -t 1.25904 -s 2 -d 1 -p ack -e 40 -c 1 -i 58 -a 1 -x {2.0 0.0 15 ------- null}
- -t 1.25904 -s 2 -d 1 -p ack -e 40 -c 1 -i 58 -a 1 -x {2.0 0.0 15 ------- null}
h -t 1.25904 -s 2 -d 1 -p ack -e 40 -c 1 -i 58 -a 1 -x {2.0 0.0 -1 ------- null}
r -t 1.26104 -s 2 -d 1 -p ack -e 40 -c 1 -i 55 -a 1 -x {2.0 0.0 14 ------- null}
+ -t 1.26104 -s 1 -d 0 -p ack -e 40 -c 1 -i 55 -a 1 -x {2.0 0.0 14 ------- null}
- -t 1.26104 -s 1 -d 0 -p ack -e 40 -c 1 -i 55 -a 1 -x {2.0 0.0 14 ------- null}
h -t 1.26104 -s 1 -d 0 -p ack -e 40 -c 1 -i 55 -a 1 -x {2.0 0.0 -1 ------- null}
r -t 1.26304 -s 1 -d 0 -p ack -e 40 -c 1 -i 52 -a 1 -x {2.0 0.0 13 ------- null}
+ -t 1.26304 -s 0 -d 1 -p tcp -e 1040 -c 1 -i 59 -a 1 -x {0.0 2.0 27 ------- null}
+ -t 1.26304 -s 0 -d 1 -p tcp -e 1040 -c 1 -i 60 -a 1 -x {0.0 2.0 28 ------- null}
- -t 1.264 -s 0 -d 1 -p tcp -e 1040 -c 1 -i 48 -a 1 -x {0.0 2.0 20 ------- null}
h -t 1.264 -s 0 -d 1 -p tcp -e 1040 -c 1 -i 48 -a 1 -x {0.0 2.0 -1 ------- null}
r -t 1.26568 -s 0 -d 1 -p tcp -e 1040 -c 1 -i 45 -a 1 -x {0.0 2.0 18 ------- null}
+ -t 1.26568 -s 1 -d 2 -p tcp -e 1040 -c 1 -i 45 -a 1 -x {0.0 2.0 18 ------- null}
- -t 1.26568 -s 1 -d 2 -p tcp -e 1040 -c 1 -i 45 -a 1 -x {0.0 2.0 18 ------- null}
h -t 1.26568 -s 1 -d 2 -p tcp -e 1040 -c 1 -i 45 -a 1 -x {0.0 2.0 -1 ------- null}